<?xml version="1.0" encoding="UTF-8"?>

<!-- generated on 2025-11-12 19:13:40 by Eclipse SUMO sumo Version 1.24.0
<sumoConfiguration xmlns:xsi="http://www.w3.org/2001/XMLSchema-instance" xsi:noNamespaceSchemaLocation="http://sumo.dlr.de/xsd/sumoConfiguration.xsd">

    <input>
        <net-file value="D:\Coding\Signaloptimiser\sumo_network.net.xml"/>
        <route-files value="D:\Coding\Signaloptimiser\generated_routes.rou.xml"/>
        <additional-files value="D:\Coding\Signaloptimiser\webster_traffic_lights.add.xml"/>
    </input>

    <output>
        <summary-output value="D:\Coding\Signaloptimiser\sumo_output_Webster.xml"/>
        <tripinfo-output value="D:\Coding\Signaloptimiser\tripinfo_Webster.xml"/>
    </output>

    <time>
        <begin value="0"/>
        <end value="3600"/>
    </time>

    <processing>
        <collision.action value="none"/>
        <time-to-teleport value="-1"/>
        <max-depart-delay value="-1"/>
    </processing>

    <report>
        <no-warnings value="true"/>
        <no-step-log value="true"/>
    </report>

</sumoConfiguration>
-->

<tripinfos xmlns:xsi="http://www.w3.org/2001/XMLSchema-instance" xsi:noNamespaceSchemaLocation="http://sumo.dlr.de/xsd/tripinfo_file.xsd">
    <tripinfo id="flow_NB_L.0" depart="0.00" departLane="NB_in_0" departPos="180.04" departSpeed="13.89" departDelay="0.00" arrival="22.00" arrivalLane="EB_out_0" arrivalPos="202.06" arrivalSpeed="13.54" duration="22.00" routeLength="286.29" waitingTime="0.00" waitingCount="0" stopTime="0.00" timeLoss="1.10" rerouteNo="0" devices="tripinfo_flow_NB_L.0 routing_flow_NB_L.0" vType="default" speedFactor="1.06" vaporized=""/>
    <tripinfo id="flow_SB_L.0" depart="0.00" departLane="SB_in_0" departPos="99.30" departSpeed="13.89" departDelay="0.00" arrival="28.00" arrivalLane="WB_out_0" arrivalPos="202.06" arrivalSpeed="12.76" duration="28.00" routeLength="367.03" waitingTime="0.00" waitingCount="0" stopTime="0.00" timeLoss="1.41" rerouteNo="0" devices="tripinfo_flow_SB_L.0 routing_flow_SB_L.0" vType="default" speedFactor="1.08" vaporized=""/>
    <tripinfo id="flow_NB_T.0" depart="0.00" departLane="NB_in_1" departPos="143.97" departSpeed="13.03" departDelay="0.00" arrival="29.00" arrivalLane="NB_out_0" arrivalPos="202.06" arrivalSpeed="11.89" duration="29.00" routeLength="356.04" waitingTime="0.00" waitingCount="0" stopTime="0.00" timeLoss="1.56" rerouteNo="0" devices="tripinfo_flow_NB_T.0 routing_flow_NB_T.0" vType="default" speedFactor="0.94" vaporized=""/>
    <tripinfo id="flow_SB_T.0" depart="0.00" departLane="SB_in_1" departPos="119.21" departSpeed="13.89" departDelay="0.00" arrival="29.00" arrivalLane="SB_out_1" arrivalPos="202.06" arrivalSpeed="13.64" duration="29.00" routeLength="380.80" waitingTime="0.00" waitingCount="0" stopTime="0.00" timeLoss="1.36" rerouteNo="0" devices="tripinfo_flow_SB_T.0 routing_flow_SB_T.0" vType="default" speedFactor="1.03" vaporized=""/>
    <tripinfo id="flow_NB_T.1" depart="2.00" departLane="NB_in_0" departPos="94.19" departSpeed="13.89" departDelay="0.21" arrival="33.00" arrivalLane="NB_out_0" arrivalPos="202.06" arrivalSpeed="13.69" duration="31.00" routeLength="405.82" waitingTime="0.00" waitingCount="0" stopTime="0.00" timeLoss="1.53" rerouteNo="0" devices="tripinfo_flow_NB_T.1 routing_flow_NB_T.1" vType="default" speedFactor="1.05" vaporized=""/>
    <tripinfo id="flow_SB_T.1" depart="2.00" departLane="SB_in_0" departPos="91.35" departSpeed="13.89" departDelay="0.14" arrival="33.00" arrivalLane="SB_out_0" arrivalPos="202.06" arrivalSpeed="13.81" duration="31.00" routeLength="408.66" waitingTime="0.00" waitingCount="0" stopTime="0.00" timeLoss="1.22" rerouteNo="0" devices="tripinfo_flow_SB_T.1 routing_flow_SB_T.1" vType="default" speedFactor="1.12" vaporized=""/>
    <tripinfo id="flow_NB_T.3" depart="6.00" departLane="NB_in_1" departPos="103.65" departSpeed="13.89" departDelay="0.64" arrival="36.00" arrivalLane="NB_out_1" arrivalPos="202.06" arrivalSpeed="13.84" duration="30.00" routeLength="396.36" waitingTime="0.00" waitingCount="0" stopTime="0.00" timeLoss="1.36" rerouteNo="0" devices="tripinfo_flow_NB_T.3 routing_flow_NB_T.3" vType="default" speedFactor="1.02" vaporized=""/>
    <tripinfo id="flow_NB_T.5" depart="9.00" departLane="NB_in_2" departPos="154.48" departSpeed="13.89" departDelay="0.07" arrival="36.00" arrivalLane="NB_out_2" arrivalPos="202.06" arrivalSpeed="13.71" duration="27.00" routeLength="345.53" waitingTime="0.00" waitingCount="0" stopTime="0.00" timeLoss="1.20" rerouteNo="0" devices="tripinfo_flow_NB_T.5 routing_flow_NB_T.5" vType="default" speedFactor="1.18" vaporized=""/>
    <tripinfo id="flow_SB_T.2" depart="4.00" departLane="SB_in_1" departPos="65.06" departSpeed="13.08" departDelay="0.27" arrival="40.00" arrivalLane="SB_out_1" arrivalPos="202.06" arrivalSpeed="12.89" duration="36.00" routeLength="434.95" waitingTime="0.00" waitingCount="0" stopTime="0.00" timeLoss="1.81" rerouteNo="0" devices="tripinfo_flow_SB_T.2 routing_flow_SB_T.2" vType="default" speedFactor="0.94" vaporized=""/>
    <tripinfo id="flow_NB_T.4" depart="8.00" departLane="NB_in_1" departPos="109.98" departSpeed="12.74" departDelay="0.86" arrival="41.00" arrivalLane="NB_out_1" arrivalPos="202.06" arrivalSpeed="11.71" duration="33.00" routeLength="390.03" waitingTime="0.00" waitingCount="0" stopTime="0.00" timeLoss="2.11" rerouteNo="0" devices="tripinfo_flow_NB_T.4 routing_flow_NB_T.4" vType="default" speedFactor="0.92" vaporized=""/>
    <tripinfo id="flow_SB_T.6" depart="12.00" departLane="SB_in_0" departPos="164.01" departSpeed="12.51" departDelay="0.82" arrival="41.00" arrivalLane="SB_out_0" arrivalPos="202.06" arrivalSpeed="11.48" duration="29.00" routeLength="336.00" waitingTime="0.00" waitingCount="0" stopTime="0.00" timeLoss="1.42" rerouteNo="0" devices="tripinfo_flow_SB_T.6 routing_flow_SB_T.6" vType="default" speedFactor="0.90" vaporized=""/>
    <tripinfo id="flow_SB_T.7" depart="14.00" departLane="SB_in_1" departPos="144.59" departSpeed="13.89" departDelay="0.96" arrival="41.00" arrivalLane="SB_out_1" arrivalPos="202.06" arrivalSpeed="13.88" duration="27.00" routeLength="355.42" waitingTime="0.00" waitingCount="0" stopTime="0.00" timeLoss="1.41" rerouteNo="0" devices="tripinfo_flow_SB_T.7 routing_flow_SB_T.7" vType="default" speedFactor="1.09" vaporized=""/>
    <tripinfo id="flow_SB_T.5" depart="10.00" departLane="SB_in_0" departPos="83.12" departSpeed="13.89" departDelay="0.69" arrival="42.00" arrivalLane="SB_out_0" arrivalPos="202.06" arrivalSpeed="13.29" duration="32.00" routeLength="416.89" waitingTime="0.00" waitingCount="0" stopTime="0.00" timeLoss="1.96" rerouteNo="0" devices="tripinfo_flow_SB_T.5 routing_flow_SB_T.5" vType="default" speedFactor="1.02" vaporized=""/>
    <tripinfo id="flow_NB_T.8" depart="15.00" departLane="NB_in_0" departPos="192.95" departSpeed="12.51" departDelay="0.71" arrival="42.00" arrivalLane="NB_out_0" arrivalPos="202.06" arrivalSpeed="11.23" duration="27.00" routeLength="307.06" waitingTime="0.00" waitingCount="0" stopTime="0.00" timeLoss="1.56" rerouteNo="0" devices="tripinfo_flow_NB_T.8 routing_flow_NB_T.8" vType="default" speedFactor="0.90" vaporized=""/>
    <tripinfo id="flow_NB_T.7" depart="13.00" departLane="NB_in_1" departPos="135.00" departSpeed="13.29" departDelay="0.50" arrival="43.00" arrivalLane="NB_out_1" arrivalPos="202.06" arrivalSpeed="12.30" duration="30.00" routeLength="365.01" waitingTime="0.00" waitingCount="0" stopTime="0.00" timeLoss="1.89" rerouteNo="0" devices="tripinfo_flow_NB_T.7 routing_flow_NB_T.7" vType="default" speedFactor="0.96" vaporized=""/>
    <tripinfo id="flow_NB_L.1" depart="9.00" departLane="NB_in_0" departPos="60.97" departSpeed="7.53" departDelay="0.67" arrival="44.00" arrivalLane="EB_out_0" arrivalPos="202.06" arrivalSpeed="12.33" duration="35.00" routeLength="405.36" waitingTime="0.00" waitingCount="0" stopTime="0.00" timeLoss="3.60" rerouteNo="0" devices="tripinfo_flow_NB_L.1 routing_flow_NB_L.1" vType="default" speedFactor="0.93" vaporized=""/>
    <tripinfo id="flow_SB_L.1" depart="9.00" departLane="SB_in_0" departPos="6.03" departSpeed="13.89" departDelay="0.30" arrival="44.00" arrivalLane="WB_out_0" arrivalPos="202.06" arrivalSpeed="12.93" duration="35.00" routeLength="460.30" waitingTime="0.00" waitingCount="0" stopTime="0.00" timeLoss="1.82" rerouteNo="0" devices="tripinfo_flow_SB_L.1 routing_flow_SB_L.1" vType="default" speedFactor="1.01" vaporized=""/>
    <tripinfo id="flow_SB_T.4" depart="8.00" departLane="SB_in_1" departPos="47.83" departSpeed="13.18" departDelay="0.55" arrival="45.00" arrivalLane="SB_out_1" arrivalPos="202.06" arrivalSpeed="12.06" duration="37.00" routeLength="452.18" waitingTime="0.00" waitingCount="0" stopTime="0.00" timeLoss="1.99" rerouteNo="0" devices="tripinfo_flow_SB_T.4 routing_flow_SB_T.4" vType="default" speedFactor="0.95" vaporized=""/>
    <tripinfo id="flow_NB_T.6" depart="11.00" departLane="NB_in_0" departPos="45.09" departSpeed="13.11" departDelay="0.28" arrival="46.00" arrivalLane="NB_out_1" arrivalPos="202.06" arrivalSpeed="13.01" duration="35.00" routeLength="454.92" waitingTime="0.00" waitingCount="0" stopTime="0.00" timeLoss="1.79" rerouteNo="0" devices="tripinfo_flow_NB_T.6 routing_flow_NB_T.6" vType="default" speedFactor="1.18" vaporized=""/>
    <tripinfo id="flow_NB_L.2" depart="17.00" departLane="NB_in_0" departPos="110.48" departSpeed="13.89" departDelay="0.33" arrival="46.00" arrivalLane="EB_out_0" arrivalPos="202.06" arrivalSpeed="13.60" duration="29.00" routeLength="355.85" waitingTime="0.00" waitingCount="0" stopTime="0.00" timeLoss="3.01" rerouteNo="0" devices="tripinfo_flow_NB_L.2 routing_flow_NB_L.2" vType="default" speedFactor="1.02" vaporized=""/>
    <tripinfo id="flow_NB_T.2" depart="4.00" departLane="NB_in_0" departPos="12.18" departSpeed="12.20" departDelay="0.43" arrival="47.00" arrivalLane="NB_out_0" arrivalPos="202.06" arrivalSpeed="12.06" duration="43.00" routeLength="487.83" waitingTime="0.00" waitingCount="0" stopTime="0.00" timeLoss="2.33" rerouteNo="0" devices="tripinfo_flow_NB_T.2 routing_flow_NB_T.2" vType="default" speedFactor="0.88" vaporized=""/>
    <tripinfo id="flow_SB_L.2" depart="18.00" departLane="SB_in_0" departPos="114.60" departSpeed="10.71" departDelay="0.61" arrival="47.00" arrivalLane="WB_out_0" arrivalPos="202.06" arrivalSpeed="12.43" duration="29.00" routeLength="351.73" waitingTime="0.00" waitingCount="0" stopTime="0.00" timeLoss="1.99" rerouteNo="0" devices="tripinfo_flow_SB_L.2 routing_flow_SB_L.2" vType="default" speedFactor="0.97" vaporized=""/>
    <tripinfo id="flow_SB_T.3" depart="6.00" departLane="SB_in_2" departPos="62.05" departSpeed="8.67" departDelay="0.41" arrival="48.00" arrivalLane="SB_out_0" arrivalPos="202.06" arrivalSpeed="13.33" duration="42.00" routeLength="437.96" waitingTime="0.00" waitingCount="0" stopTime="0.00" timeLoss="9.78" rerouteNo="0" devices="tripinfo_flow_SB_T.3 routing_flow_SB_T.3" vType="default" speedFactor="1.01" vaporized=""/>
    <tripinfo id="flow_NB_L.3" depart="25.00" departLane="NB_in_0" departPos="196.30" departSpeed="12.42" departDelay="0.00" arrival="48.00" arrivalLane="EB_out_0" arrivalPos="202.06" arrivalSpeed="13.40" duration="23.00" routeLength="270.03" waitingTime="0.00" waitingCount="0" stopTime="0.00" timeLoss="2.91" rerouteNo="0" devices="tripinfo_flow_NB_L.3 routing_flow_NB_L.3" vType="default" speedFactor="1.03" vaporized=""/>
    <tripinfo id="flow_NB_T.9" depart="17.00" departLane="NB_in_2" departPos="187.53" departSpeed="8.05" departDelay="0.93" arrival="50.00" arrivalLane="NB_out_1" arrivalPos="202.06" arrivalSpeed="13.08" duration="33.00" routeLength="312.48" waitingTime="4.00" waitingCount="1" stopTime="0.00" timeLoss="10.32" rerouteNo="0" devices="tripinfo_flow_NB_T.9 routing_flow_NB_T.9" vType="default" speedFactor="1.10" vaporized=""/>
    <tripinfo id="flow_NB_T.13" depart="24.00" departLane="NB_in_0" departPos="143.61" departSpeed="13.89" departDelay="0.78" arrival="51.00" arrivalLane="NB_out_0" arrivalPos="202.06" arrivalSpeed="12.93" duration="27.00" routeLength="356.40" waitingTime="0.00" waitingCount="0" stopTime="0.00" timeLoss="1.21" rerouteNo="0" devices="tripinfo_flow_NB_T.13 routing_flow_NB_T.13" vType="default" speedFactor="1.06" vaporized=""/>
    <tripinfo id="flow_SB_T.9" depart="17.00" departLane="SB_in_0" departPos="36.16" departSpeed="13.83" departDelay="0.23" arrival="53.00" arrivalLane="SB_out_0" arrivalPos="202.06" arrivalSpeed="12.71" duration="36.00" routeLength="463.85" waitingTime="0.00" waitingCount="0" stopTime="0.00" timeLoss="1.58" rerouteNo="0" devices="tripinfo_flow_SB_T.9 routing_flow_SB_T.9" vType="default" speedFactor="1.00" vaporized=""/>
    <tripinfo id="flow_NB_T.14" depart="26.00" departLane="NB_in_0" departPos="141.34" departSpeed="13.89" departDelay="1.00" arrival="53.00" arrivalLane="NB_out_0" arrivalPos="202.06" arrivalSpeed="13.61" duration="27.00" routeLength="358.67" waitingTime="0.00" waitingCount="0" stopTime="0.00" timeLoss="1.14" rerouteNo="0" devices="tripinfo_flow_NB_T.14 routing_flow_NB_T.14" vType="default" speedFactor="1.09" vaporized=""/>
    <tripinfo id="flow_SB_L.3" depart="27.00" departLane="SB_in_0" departPos="133.73" departSpeed="13.89" departDelay="0.91" arrival="53.00" arrivalLane="WB_out_0" arrivalPos="202.06" arrivalSpeed="12.66" duration="26.00" routeLength="332.60" waitingTime="0.00" waitingCount="0" stopTime="0.00" timeLoss="1.30" rerouteNo="0" devices="tripinfo_flow_SB_L.3 routing_flow_SB_L.3" vType="default" speedFactor="1.02" vaporized=""/>
    <tripinfo id="flow_SB_T.15" depart="28.00" departLane="SB_in_1" departPos="178.22" departSpeed="13.89" departDelay="0.06" arrival="53.00" arrivalLane="SB_out_1" arrivalPos="202.06" arrivalSpeed="12.71" duration="25.00" routeLength="321.79" waitingTime="0.00" waitingCount="0" stopTime="0.00" timeLoss="1.27" rerouteNo="0" devices="tripinfo_flow_SB_T.15 routing_flow_SB_T.15" vType="default" speedFactor="1.04" vaporized=""/>
    <tripinfo id="flow_NB_T.10" depart="18.00" departLane="NB_in_1" departPos="17.38" departSpeed="13.89" departDelay="0.14" arrival="55.00" arrivalLane="NB_out_1" arrivalPos="202.06" arrivalSpeed="12.80" duration="37.00" routeLength="482.63" waitingTime="0.00" waitingCount="0" stopTime="0.00" timeLoss="1.73" rerouteNo="0" devices="tripinfo_flow_NB_T.10 routing_flow_NB_T.10" vType="default" speedFactor="1.02" vaporized=""/>
    <tripinfo id="flow_NB_T.12" depart="22.00" departLane="NB_in_0" departPos="61.17" departSpeed="13.89" departDelay="0.57" arrival="56.00" arrivalLane="NB_out_0" arrivalPos="202.06" arrivalSpeed="13.82" duration="34.00" routeLength="438.84" waitingTime="0.00" waitingCount="0" stopTime="0.00" timeLoss="1.66" rerouteNo="0" devices="tripinfo_flow_NB_T.12 routing_flow_NB_T.12" vType="default" speedFactor="1.02" vaporized=""/>
    <tripinfo id="flow_NB_T.11" depart="20.00" departLane="NB_in_1" departPos="16.16" departSpeed="13.71" departDelay="0.35" arrival="58.00" arrivalLane="NB_out_1" arrivalPos="202.06" arrivalSpeed="12.70" duration="38.00" routeLength="483.85" waitingTime="0.00" waitingCount="0" stopTime="0.00" timeLoss="2.02" rerouteNo="0" devices="tripinfo_flow_NB_T.11 routing_flow_NB_T.11" vType="default" speedFactor="0.99" vaporized=""/>
    <tripinfo id="flow_NB_T.18" depart="33.00" departLane="NB_in_0" departPos="173.08" departSpeed="13.89" departDelay="0.85" arrival="58.00" arrivalLane="NB_out_0" arrivalPos="202.06" arrivalSpeed="13.79" duration="25.00" routeLength="326.93" waitingTime="0.00" waitingCount="0" stopTime="0.00" timeLoss="1.27" rerouteNo="0" devices="tripinfo_flow_NB_T.18 routing_flow_NB_T.18" vType="default" speedFactor="1.06" vaporized=""/>
    <tripinfo id="flow_SB_T.10" depart="19.00" departLane="SB_in_1" departPos="9.47" departSpeed="13.89" departDelay="0.37" arrival="59.00" arrivalLane="SB_out_1" arrivalPos="202.06" arrivalSpeed="12.85" duration="40.00" routeLength="490.54" waitingTime="0.00" waitingCount="0" stopTime="0.00" timeLoss="4.29" rerouteNo="0" devices="tripinfo_flow_SB_T.10 routing_flow_SB_T.10" vType="default" speedFactor="1.02" vaporized=""/>
    <tripinfo id="flow_SB_T.11" depart="21.00" departLane="SB_in_1" departPos="58.60" departSpeed="12.60" departDelay="0.51" arrival="59.00" arrivalLane="SB_out_0" arrivalPos="202.06" arrivalSpeed="11.99" duration="38.00" routeLength="441.41" waitingTime="0.00" waitingCount="0" stopTime="0.00" timeLoss="2.16" rerouteNo="0" devices="tripinfo_flow_SB_T.11 routing_flow_SB_T.11" vType="default" speedFactor="0.91" vaporized=""/>
    <tripinfo id="flow_NB_T.15" depart="27.00" departLane="NB_in_1" departPos="94.23" departSpeed="10.14" departDelay="0.21" arrival="60.00" arrivalLane="NB_out_1" arrivalPos="202.06" arrivalSpeed="13.10" duration="33.00" routeLength="405.78" waitingTime="0.00" waitingCount="0" stopTime="0.00" timeLoss="2.80" rerouteNo="0" devices="tripinfo_flow_NB_T.15 routing_flow_NB_T.15" vType="default" speedFactor="1.00" vaporized=""/>
    <tripinfo id="flow_SB_T.12" depart="23.00" departLane="SB_in_0" departPos="21.16" departSpeed="13.51" departDelay="0.64" arrival="61.00" arrivalLane="SB_out_0" arrivalPos="202.06" arrivalSpeed="12.84" duration="38.00" routeLength="478.85" waitingTime="0.00" waitingCount="0" stopTime="0.00" timeLoss="1.76" rerouteNo="0" devices="tripinfo_flow_SB_T.12 routing_flow_SB_T.12" vType="default" speedFactor="0.97" vaporized=""/>
    <tripinfo id="flow_SB_T.13" depart="25.00" departLane="SB_in_1" departPos="69.28" departSpeed="10.13" departDelay="0.78" arrival="61.00" arrivalLane="SB_out_1" arrivalPos="202.06" arrivalSpeed="13.85" duration="36.00" routeLength="430.73" waitingTime="0.00" waitingCount="0" stopTime="0.00" timeLoss="4.37" rerouteNo="0" devices="tripinfo_flow_SB_T.13 routing_flow_SB_T.13" vType="default" speedFactor="1.01" vaporized=""/>
    <tripinfo id="flow_NB_T.16" depart="29.00" departLane="NB_in_0" departPos="78.94" departSpeed="13.89" departDelay="0.42" arrival="61.00" arrivalLane="NB_out_0" arrivalPos="202.06" arrivalSpeed="13.57" duration="32.00" routeLength="421.07" waitingTime="0.00" waitingCount="0" stopTime="0.00" timeLoss="1.54" rerouteNo="0" devices="tripinfo_flow_NB_T.16 routing_flow_NB_T.16" vType="default" speedFactor="1.02" vaporized=""/>
    <tripinfo id="flow_NB_T.20" depart="36.00" departLane="NB_in_1" departPos="172.01" departSpeed="13.89" departDelay="0.28" arrival="61.00" arrivalLane="NB_out_1" arrivalPos="202.06" arrivalSpeed="13.65" duration="25.00" routeLength="328.00" waitingTime="0.00" waitingCount="0" stopTime="0.00" timeLoss="1.35" rerouteNo="0" devices="tripinfo_flow_NB_T.20 routing_flow_NB_T.20" vType="default" speedFactor="1.10" vaporized=""/>
    <tripinfo id="flow_SB_T.17" depart="32.00" departLane="SB_in_0" departPos="119.76" departSpeed="12.16" departDelay="0.33" arrival="62.00" arrivalLane="SB_out_0" arrivalPos="202.06" arrivalSpeed="13.83" duration="30.00" routeLength="380.25" waitingTime="0.00" waitingCount="0" stopTime="0.00" timeLoss="2.51" rerouteNo="0" devices="tripinfo_flow_SB_T.17 routing_flow_SB_T.17" vType="default" speedFactor="1.12" vaporized=""/>
    <tripinfo id="flow_SB_T.14" depart="27.00" departLane="SB_in_0" departPos="56.82" departSpeed="11.21" departDelay="0.92" arrival="63.00" arrivalLane="SB_out_1" arrivalPos="202.06" arrivalSpeed="12.61" duration="36.00" routeLength="443.19" waitingTime="0.00" waitingCount="0" stopTime="0.00" timeLoss="2.60" rerouteNo="0" devices="tripinfo_flow_SB_T.14 routing_flow_SB_T.14" vType="default" speedFactor="0.97" vaporized=""/>
    <tripinfo id="flow_WB_R.0" depart="0.00" departLane="WB_in_0" departPos="135.99" departSpeed="13.89" departDelay="0.00" arrival="68.00" arrivalLane="NB_out_0" arrivalPos="202.06" arrivalSpeed="13.44" duration="68.00" routeLength="330.34" waitingTime="37.00" waitingCount="1" stopTime="0.00" timeLoss="44.21" rerouteNo="0" devices="tripinfo_flow_WB_R.0 routing_flow_WB_R.0" vType="default" speedFactor="1.03" vaporized=""/>
    <tripinfo id="flow_SB_R.1" depart="9.00" departLane="SB_in_2" departPos="138.43" departSpeed="13.89" departDelay="0.30" arrival="69.00" arrivalLane="EB_out_2" arrivalPos="202.06" arrivalSpeed="13.74" duration="60.00" routeLength="347.80" waitingTime="28.00" waitingCount="1" stopTime="0.00" timeLoss="34.68" rerouteNo="0" devices="tripinfo_flow_SB_R.1 routing_flow_SB_R.1" vType="default" speedFactor="1.17" vaporized=""/>
    <tripinfo id="flow_NB_R.0" depart="0.00" departLane="NB_in_2" departPos="9.19" departSpeed="13.89" departDelay="0.00" arrival="70.00" arrivalLane="WB_out_2" arrivalPos="202.06" arrivalSpeed="12.74" duration="70.00" routeLength="477.04" waitingTime="28.00" waitingCount="1" stopTime="0.00" timeLoss="35.52" rerouteNo="0" devices="tripinfo_flow_NB_R.0 routing_flow_NB_R.0" vType="default" speedFactor="1.01" vaporized=""/>
    <tripinfo id="flow_EB_R.0" depart="0.00" departLane="EB_in_0" departPos="110.18" departSpeed="13.03" departDelay="0.00" arrival="70.00" arrivalLane="SB_out_0" arrivalPos="202.06" arrivalSpeed="12.43" duration="70.00" routeLength="356.15" waitingTime="36.00" waitingCount="1" stopTime="0.00" timeLoss="41.86" rerouteNo="0" devices="tripinfo_flow_EB_R.0 routing_flow_EB_R.0" vType="default" speedFactor="0.94" vaporized=""/>
    <tripinfo id="flow_WB_T.1" depart="2.00" departLane="WB_in_1" departPos="114.42" departSpeed="13.77" departDelay="0.52" arrival="75.00" arrivalLane="WB_out_1" arrivalPos="202.06" arrivalSpeed="13.16" duration="73.00" routeLength="385.59" waitingTime="34.00" waitingCount="1" stopTime="0.00" timeLoss="44.19" rerouteNo="0" devices="tripinfo_flow_WB_T.1 routing_flow_WB_T.1" vType="default" speedFactor="0.99" vaporized=""/>
    <tripinfo id="flow_WB_T.4" depart="6.00" departLane="WB_in_0" departPos="128.00" departSpeed="13.54" departDelay="0.09" arrival="75.00" arrivalLane="WB_out_0" arrivalPos="202.06" arrivalSpeed="12.91" duration="69.00" routeLength="372.01" waitingTime="34.00" waitingCount="1" stopTime="0.00" timeLoss="41.15" rerouteNo="0" devices="tripinfo_flow_WB_T.4 routing_flow_WB_T.4" vType="default" speedFactor="0.97" vaporized=""/>
    <tripinfo id="flow_EB_R.1" depart="16.00" departLane="EB_in_0" departPos="56.34" departSpeed="13.89" departDelay="0.62" arrival="76.00" arrivalLane="SB_out_0" arrivalPos="202.06" arrivalSpeed="12.60" duration="60.00" routeLength="409.99" waitingTime="20.00" waitingCount="1" stopTime="0.00" timeLoss="30.43" rerouteNo="0" devices="tripinfo_flow_EB_R.1 routing_flow_EB_R.1" vType="default" speedFactor="1.17" vaporized=""/>
    <tripinfo id="flow_EB_T.0" depart="0.00" departLane="EB_in_0" departPos="50.01" departSpeed="12.31" departDelay="0.00" arrival="77.00" arrivalLane="EB_out_0" arrivalPos="202.06" arrivalSpeed="11.35" duration="77.00" routeLength="450.00" waitingTime="31.00" waitingCount="1" stopTime="0.00" timeLoss="40.35" rerouteNo="0" devices="tripinfo_flow_EB_T.0 routing_flow_EB_T.0" vType="default" speedFactor="0.89" vaporized=""/>
    <tripinfo id="flow_WB_T.0" depart="0.00" departLane="WB_in_0" departPos="1.22" departSpeed="13.89" departDelay="0.00" arrival="77.00" arrivalLane="WB_out_0" arrivalPos="202.06" arrivalSpeed="12.64" duration="77.00" routeLength="498.79" waitingTime="31.00" waitingCount="1" stopTime="0.00" timeLoss="40.56" rerouteNo="0" devices="tripinfo_flow_WB_T.0 routing_flow_WB_T.0" vType="default" speedFactor="1.09" vaporized=""/>
    <tripinfo id="flow_WB_T.2" depart="3.00" departLane="WB_in_1" departPos="53.45" departSpeed="12.87" departDelay="0.04" arrival="78.00" arrivalLane="WB_out_1" arrivalPos="202.06" arrivalSpeed="12.35" duration="75.00" routeLength="446.56" waitingTime="29.00" waitingCount="1" stopTime="0.00" timeLoss="40.00" rerouteNo="0" devices="tripinfo_flow_WB_T.2 routing_flow_WB_T.2" vType="default" speedFactor="0.93" vaporized=""/>
    <tripinfo id="flow_EB_T.1" depart="4.00" departLane="EB_in_1" departPos="138.13" departSpeed="13.00" departDelay="0.70" arrival="78.00" arrivalLane="EB_out_1" arrivalPos="202.06" arrivalSpeed="11.75" duration="74.00" routeLength="361.88" waitingTime="34.00" waitingCount="1" stopTime="0.00" timeLoss="45.90" rerouteNo="0" devices="tripinfo_flow_EB_T.1 routing_flow_EB_T.1" vType="default" speedFactor="0.94" vaporized=""/>
    <tripinfo id="flow_WB_R.1" depart="7.00" departLane="WB_in_0" departPos="80.13" departSpeed="10.18" departDelay="0.10" arrival="78.00" arrivalLane="NB_out_0" arrivalPos="202.06" arrivalSpeed="11.09" duration="71.00" routeLength="386.20" waitingTime="30.00" waitingCount="1" stopTime="0.00" timeLoss="38.94" rerouteNo="0" devices="tripinfo_flow_WB_R.1 routing_flow_WB_R.1" vType="default" speedFactor="0.87" vaporized=""/>
    <tripinfo id="flow_EB_T.4" depart="14.00" departLane="EB_in_0" departPos="120.47" departSpeed="13.89" departDelay="0.81" arrival="79.00" arrivalLane="EB_out_0" arrivalPos="202.06" arrivalSpeed="12.64" duration="65.00" routeLength="379.54" waitingTime="25.00" waitingCount="1" stopTime="0.00" timeLoss="37.22" rerouteNo="0" devices="tripinfo_flow_EB_T.4 routing_flow_EB_T.4" vType="default" speedFactor="1.04" vaporized=""/>
    <tripinfo id="flow_WB_T.6" depart="9.00" departLane="WB_in_1" departPos="66.94" departSpeed="13.82" departDelay="0.13" arrival="80.00" arrivalLane="WB_out_1" arrivalPos="202.06" arrivalSpeed="12.90" duration="71.00" routeLength="433.07" waitingTime="27.00" waitingCount="1" stopTime="0.00" timeLoss="39.02" rerouteNo="0" devices="tripinfo_flow_WB_T.6 routing_flow_WB_T.6" vType="default" speedFactor="0.99" vaporized=""/>
    <tripinfo id="flow_WB_T.8" depart="12.00" departLane="WB_in_0" departPos="17.99" departSpeed="13.89" departDelay="0.18" arrival="80.00" arrivalLane="WB_out_0" arrivalPos="202.06" arrivalSpeed="13.66" duration="68.00" routeLength="482.02" waitingTime="23.00" waitingCount="1" stopTime="0.00" timeLoss="32.85" rerouteNo="0" devices="tripinfo_flow_WB_T.8 routing_flow_WB_T.8" vType="default" speedFactor="1.03" vaporized=""/>
    <tripinfo id="flow_WB_R.2" depart="14.00" departLane="WB_in_0" departPos="34.03" departSpeed="10.52" departDelay="0.21" arrival="80.00" arrivalLane="NB_out_0" arrivalPos="202.06" arrivalSpeed="13.73" duration="66.00" routeLength="432.30" waitingTime="22.00" waitingCount="1" stopTime="0.00" timeLoss="34.19" rerouteNo="0" devices="tripinfo_flow_WB_R.2 routing_flow_WB_R.2" vType="default" speedFactor="1.00" vaporized=""/>
    <tripinfo id="flow_EB_R.2" depart="31.00" departLane="EB_in_0" departPos="137.57" departSpeed="12.59" departDelay="0.23" arrival="80.00" arrivalLane="SB_out_0" arrivalPos="202.06" arrivalSpeed="11.98" duration="49.00" routeLength="328.76" waitingTime="12.00" waitingCount="1" stopTime="0.00" timeLoss="22.74" rerouteNo="0" devices="tripinfo_flow_EB_R.2 routing_flow_EB_R.2" vType="default" speedFactor="0.91" vaporized=""/>
    <tripinfo id="flow_EB_T.2" depart="7.00" departLane="EB_in_1" departPos="166.56" departSpeed="8.01" departDelay="0.41" arrival="81.00" arrivalLane="EB_out_1" arrivalPos="202.06" arrivalSpeed="11.63" duration="74.00" routeLength="333.45" waitingTime="34.00" waitingCount="1" stopTime="0.00" timeLoss="46.68" rerouteNo="0" devices="tripinfo_flow_EB_T.2 routing_flow_EB_T.2" vType="default" speedFactor="0.89" vaporized=""/>
    <tripinfo id="flow_WB_T.9" depart="14.00" departLane="WB_in_1" departPos="117.21" departSpeed="11.63" departDelay="0.70" arrival="82.00" arrivalLane="WB_out_1" arrivalPos="202.06" arrivalSpeed="12.84" duration="68.00" routeLength="382.80" waitingTime="26.00" waitingCount="1" stopTime="0.00" timeLoss="39.56" rerouteNo="0" devices="tripinfo_flow_WB_T.9 routing_flow_WB_T.9" vType="default" speedFactor="1.09" vaporized=""/>
    <tripinfo id="flow_WB_T.5" depart="8.00" departLane="WB_in_1" departPos="6.55" departSpeed="13.89" departDelay="0.61" arrival="83.00" arrivalLane="WB_out_1" arrivalPos="202.06" arrivalSpeed="12.60" duration="75.00" routeLength="493.46" waitingTime="25.00" waitingCount="1" stopTime="0.00" timeLoss="39.39" rerouteNo="0" devices="tripinfo_flow_WB_T.5 routing_flow_WB_T.5" vType="default" speedFactor="1.13" vaporized=""/>
    <tripinfo id="flow_EB_T.6" depart="20.00" departLane="EB_in_1" departPos="145.86" departSpeed="13.02" departDelay="0.22" arrival="83.00" arrivalLane="EB_out_1" arrivalPos="202.06" arrivalSpeed="12.56" duration="63.00" routeLength="354.15" waitingTime="22.00" waitingCount="1" stopTime="0.00" timeLoss="35.23" rerouteNo="0" devices="tripinfo_flow_EB_T.6 routing_flow_EB_T.6" vType="default" speedFactor="0.94" vaporized=""/>
    <tripinfo id="flow_WB_T.14" depart="21.00" departLane="WB_in_0" departPos="103.62" departSpeed="11.05" departDelay="0.31" arrival="83.00" arrivalLane="WB_out_0" arrivalPos="202.06" arrivalSpeed="13.83" duration="62.00" routeLength="396.39" waitingTime="21.00" waitingCount="1" stopTime="0.00" timeLoss="33.36" rerouteNo="0" devices="tripinfo_flow_WB_T.14 routing_flow_WB_T.14" vType="default" speedFactor="1.04" vaporized=""/>
    <tripinfo id="flow_EB_T.8" depart="27.00" departLane="EB_in_0" departPos="25.12" departSpeed="13.56" departDelay="0.62" arrival="83.00" arrivalLane="EB_out_0" arrivalPos="202.06" arrivalSpeed="13.35" duration="56.00" routeLength="474.89" waitingTime="11.00" waitingCount="1" stopTime="0.00" timeLoss="20.45" rerouteNo="0" devices="tripinfo_flow_EB_T.8 routing_flow_EB_T.8" vType="default" speedFactor="0.98" vaporized=""/>
    <tripinfo id="flow_WB_R.3" depart="21.00" departLane="WB_in_0" departPos="4.82" departSpeed="13.89" departDelay="0.31" arrival="84.00" arrivalLane="NB_out_0" arrivalPos="202.06" arrivalSpeed="13.61" duration="63.00" routeLength="461.51" waitingTime="18.00" waitingCount="1" stopTime="0.00" timeLoss="29.60" rerouteNo="0" devices="tripinfo_flow_WB_R.3 routing_flow_WB_R.3" vType="default" speedFactor="1.02" vaporized=""/>