<?xml version="1.0" encoding="UTF-8"?>

<!-- generated on 2025-11-10 11:41:17 by Eclipse SUMO sumo Version 1.24.0
<sumoConfiguration xmlns:xsi="http://www.w3.org/2001/XMLSchema-instance" xsi:noNamespaceSchemaLocation="http://sumo.dlr.de/xsd/sumoConfiguration.xsd">

    <input>
        <net-file value="sumo_network.net.xml"/>
        <route-files value="routes.rou.xml"/>
        <additional-files value="ml_traffic_lights.add.xml"/>
    </input>

    <output>
        <summary-output value="sumo_output_ML.xml"/>
        <tripinfo-output value="tripinfo_ML.xml"/>
    </output>

    <time>
        <begin value="0"/>
        <end value="3600"/>
    </time>

    <report>
        <no-warnings value="true"/>
        <no-step-log value="true"/>
    </report>

</sumoConfiguration>
-->

<tripinfos xmlns:xsi="http://www.w3.org/2001/XMLSchema-instance" xsi:noNamespaceSchemaLocation="http://sumo.dlr.de/xsd/tripinfo_file.xsd">
    <tripinfo id="flow_NB.0" depart="0.00" departLane="NB_in_0" departPos="5.10" departSpeed="13.89" departDelay="0.00" arrival="39.00" arrivalLane="WB_out_0" arrivalPos="242.80" arrivalSpeed="13.38" duration="39.00" routeLength="489.53" waitingTime="0.00" waitingCount="0" stopTime="0.00" timeLoss="3.02" rerouteNo="0" devices="tripinfo_flow_NB.0 routing_flow_NB.0" vType="default" speedFactor="1.06" vaporized=""/>
    <tripinfo id="flow_SB.0" depart="0.00" departLane="SB_in_0" departPos="5.10" departSpeed="13.03" departDelay="0.00" arrival="40.00" arrivalLane="SB_out_0" arrivalPos="242.80" arrivalSpeed="12.76" duration="40.00" routeLength="494.90" waitingTime="0.00" waitingCount="0" stopTime="0.00" timeLoss="2.03" rerouteNo="0" devices="tripinfo_flow_SB.0 routing_flow_SB.0" vType="default" speedFactor="0.94" vaporized=""/>
    <tripinfo id="flow_WB.0" depart="0.00" departLane="WB_in_0" departPos="5.10" departSpeed="13.89" departDelay="0.00" arrival="62.00" arrivalLane="NB_out_0" arrivalPos="246.00" arrivalSpeed="13.58" duration="62.00" routeLength="495.43" waitingTime="18.00" waitingCount="1" stopTime="0.00" timeLoss="25.09" rerouteNo="0" devices="tripinfo_flow_WB.0 routing_flow_WB.0" vType="default" speedFactor="1.01" vaporized=""/>
    <tripinfo id="flow_WB.1" depart="18.00" departLane="WB_in_0" departPos="5.10" departSpeed="13.89" departDelay="0.44" arrival="64.00" arrivalLane="NB_out_0" arrivalPos="246.00" arrivalSpeed="12.83" duration="46.00" routeLength="495.43" waitingTime="3.00" waitingCount="1" stopTime="0.00" timeLoss="9.53" rerouteNo="0" devices="tripinfo_flow_WB.1 routing_flow_WB.1" vType="default" speedFactor="1.08" vaporized=""/>
    <tripinfo id="flow_NB.1" depart="19.00" departLane="NB_in_0" departPos="5.10" departSpeed="13.89" departDelay="0.44" arrival="81.00" arrivalLane="WB_out_0" arrivalPos="242.80" arrivalSpeed="13.74" duration="62.00" routeLength="489.53" waitingTime="18.00" waitingCount="1" stopTime="0.00" timeLoss="25.93" rerouteNo="0" devices="tripinfo_flow_NB.1 routing_flow_NB.1" vType="default" speedFactor="1.03" vaporized=""/>
    <tripinfo id="flow_SB.1" depart="23.00" departLane="SB_in_0" departPos="5.10" departSpeed="11.54" departDelay="0.64" arrival="84.00" arrivalLane="SB_out_0" arrivalPos="242.80" arrivalSpeed="10.87" duration="61.00" routeLength="494.90" waitingTime="12.00" waitingCount="1" stopTime="0.00" timeLoss="17.90" rerouteNo="0" devices="tripinfo_flow_SB.1 routing_flow_SB.1" vType="default" speedFactor="0.83" vaporized=""/>
    <tripinfo id="flow_NB.2" depart="38.00" departLane="NB_in_0" departPos="5.10" departSpeed="12.31" departDelay="0.89" arrival="86.00" arrivalLane="WB_out_0" arrivalPos="242.80" arrivalSpeed="11.11" duration="48.00" routeLength="489.53" waitingTime="0.00" waitingCount="0" stopTime="0.00" timeLoss="7.16" rerouteNo="0" devices="tripinfo_flow_NB.2 routing_flow_NB.2" vType="default" speedFactor="0.89" vaporized=""/>
    <tripinfo id="flow_SB.2" depart="45.00" departLane="SB_in_0" departPos="5.10" departSpeed="13.03" departDelay="0.28" arrival="86.00" arrivalLane="SB_out_0" arrivalPos="242.80" arrivalSpeed="12.18" duration="41.00" routeLength="494.90" waitingTime="0.00" waitingCount="0" stopTime="0.00" timeLoss="2.52" rerouteNo="0" devices="tripinfo_flow_SB.2 routing_flow_SB.2" vType="default" speedFactor="0.94" vaporized=""/>
    <tripinfo id="flow_NB.3" depart="56.00" departLane="NB_in_0" departPos="5.10" departSpeed="13.89" departDelay="0.33" arrival="95.00" arrivalLane="WB_out_0" arrivalPos="242.80" arrivalSpeed="13.22" duration="39.00" routeLength="489.53" waitingTime="0.00" waitingCount="0" stopTime="0.00" timeLoss="2.85" rerouteNo="0" devices="tripinfo_flow_NB.3 routing_flow_NB.3" vType="default" speedFactor="1.09" vaporized=""/>
    <tripinfo id="flow_SB.3" depart="68.00" departLane="SB_in_0" departPos="5.10" departSpeed="13.89" departDelay="0.92" arrival="106.00" arrivalLane="SB_out_0" arrivalPos="242.80" arrivalSpeed="13.55" duration="38.00" routeLength="494.90" waitingTime="0.00" waitingCount="0" stopTime="0.00" timeLoss="1.75" rerouteNo="0" devices="tripinfo_flow_SB.3 routing_flow_SB.3" vType="default" speedFactor="1.03" vaporized=""/>
    <tripinfo id="flow_NB.4" depart="75.00" departLane="NB_in_0" departPos="5.10" departSpeed="13.89" departDelay="0.77" arrival="114.00" arrivalLane="WB_out_0" arrivalPos="242.80" arrivalSpeed="12.71" duration="39.00" routeLength="489.53" waitingTime="0.00" waitingCount="0" stopTime="0.00" timeLoss="3.05" rerouteNo="0" devices="tripinfo_flow_NB.4 routing_flow_NB.4" vType="default" speedFactor="1.12" vaporized=""/>
    <tripinfo id="flow_WB.2" depart="36.00" departLane="WB_in_0" departPos="5.10" departSpeed="13.89" departDelay="0.88" arrival="121.00" arrivalLane="NB_out_0" arrivalPos="246.00" arrivalSpeed="12.98" duration="85.00" routeLength="495.43" waitingTime="42.00" waitingCount="1" stopTime="0.00" timeLoss="48.47" rerouteNo="0" devices="tripinfo_flow_WB.2 routing_flow_WB.2" vType="default" speedFactor="1.05" vaporized=""/>
    <tripinfo id="flow_WB.3" depart="53.00" departLane="WB_in_0" departPos="5.10" departSpeed="11.90" departDelay="0.32" arrival="126.00" arrivalLane="NB_out_0" arrivalPos="246.00" arrivalSpeed="11.88" duration="73.00" routeLength="495.43" waitingTime="23.00" waitingCount="1" stopTime="0.00" timeLoss="30.44" rerouteNo="0" devices="tripinfo_flow_WB.3 routing_flow_WB.3" vType="default" speedFactor="0.86" vaporized=""/>
    <tripinfo id="flow_WB.4" depart="71.00" departLane="WB_in_0" departPos="5.10" departSpeed="13.89" departDelay="0.76" arrival="128.00" arrivalLane="NB_out_0" arrivalPos="246.00" arrivalSpeed="13.66" duration="57.00" routeLength="495.43" waitingTime="9.00" waitingCount="1" stopTime="0.00" timeLoss="20.12" rerouteNo="0" devices="tripinfo_flow_WB.4 routing_flow_WB.4" vType="default" speedFactor="1.05" vaporized=""/>
    <tripinfo id="flow_WB.5" depart="88.00" departLane="WB_in_0" departPos="5.10" departSpeed="13.77" departDelay="0.20" arrival="130.00" arrivalLane="NB_out_0" arrivalPos="246.00" arrivalSpeed="12.73" duration="42.00" routeLength="495.43" waitingTime="0.00" waitingCount="0" stopTime="0.00" timeLoss="5.05" rerouteNo="0" devices="tripinfo_flow_WB.5 routing_flow_WB.5" vType="default" speedFactor="0.99" vaporized=""/>
    <tripinfo id="flow_SB.4" depart="90.00" departLane="SB_in_0" departPos="5.10" departSpeed="12.87" departDelay="0.56" arrival="141.00" arrivalLane="SB_out_0" arrivalPos="242.80" arrivalSpeed="12.22" duration="51.00" routeLength="494.90" waitingTime="5.00" waitingCount="1" stopTime="0.00" timeLoss="11.95" rerouteNo="0" devices="tripinfo_flow_SB.4 routing_flow_SB.4" vType="default" speedFactor="0.93" vaporized=""/>
    <tripinfo id="flow_NB.5" depart="93.00" departLane="NB_in_0" departPos="5.10" departSpeed="12.20" departDelay="0.22" arrival="143.00" arrivalLane="WB_out_0" arrivalPos="242.80" arrivalSpeed="11.87" duration="50.00" routeLength="489.53" waitingTime="2.00" waitingCount="1" stopTime="0.00" timeLoss="8.56" rerouteNo="0" devices="tripinfo_flow_NB.5 routing_flow_NB.5" vType="default" speedFactor="0.88" vaporized=""/>
    <tripinfo id="flow_SB.5" depart="112.00" departLane="SB_in_0" departPos="5.10" departSpeed="13.89" departDelay="0.20" arrival="150.00" arrivalLane="SB_out_0" arrivalPos="242.80" arrivalSpeed="12.59" duration="38.00" routeLength="494.90" waitingTime="0.00" waitingCount="0" stopTime="0.00" timeLoss="1.88" rerouteNo="0" devices="tripinfo_flow_SB.5 routing_flow_SB.5" vType="default" speedFactor="1.16" vaporized=""/>
    <tripinfo id="flow_NB.6" depart="112.00" departLane="NB_in_0" departPos="5.10" departSpeed="13.00" departDelay="0.66" arrival="155.00" arrivalLane="WB_out_0" arrivalPos="242.80" arrivalSpeed="12.90" duration="43.00" routeLength="489.53" waitingTime="0.00" waitingCount="0" stopTime="0.00" timeLoss="3.48" rerouteNo="0" devices="tripinfo_flow_NB.6 routing_flow_NB.6" vType="default" speedFactor="0.94" vaporized=""/>
    <tripinfo id="flow_NB.7" depart="130.00" departLane="NB_in_0" departPos="5.10" departSpeed="13.89" departDelay="0.10" arrival="169.00" arrivalLane="WB_out_0" arrivalPos="242.80" arrivalSpeed="12.92" duration="39.00" routeLength="489.53" waitingTime="0.00" waitingCount="0" stopTime="0.00" timeLoss="3.19" rerouteNo="0" devices="tripinfo_flow_NB.7 routing_flow_NB.7" vType="default" speedFactor="1.01" vaporized=""/>
    <tripinfo id="flow_WB.6" depart="106.00" departLane="WB_in_0" departPos="5.10" departSpeed="13.08" departDelay="0.63" arrival="181.00" arrivalLane="NB_out_0" arrivalPos="246.00" arrivalSpeed="12.60" duration="75.00" routeLength="495.43" waitingTime="29.00" waitingCount="1" stopTime="0.00" timeLoss="36.35" rerouteNo="0" devices="tripinfo_flow_WB.6 routing_flow_WB.6" vType="default" speedFactor="0.94" vaporized=""/>
    <tripinfo id="flow_WB.7" depart="123.00" departLane="WB_in_0" departPos="5.10" departSpeed="13.89" departDelay="0.07" arrival="183.00" arrivalLane="NB_out_0" arrivalPos="246.00" arrivalSpeed="13.30" duration="60.00" routeLength="495.43" waitingTime="15.00" waitingCount="1" stopTime="0.00" timeLoss="23.22" rerouteNo="0" devices="tripinfo_flow_WB.7 routing_flow_WB.7" vType="default" speedFactor="1.02" vaporized=""/>
    <tripinfo id="flow_WB.8" depart="141.00" departLane="WB_in_0" departPos="5.10" departSpeed="12.36" departDelay="0.51" arrival="187.00" arrivalLane="NB_out_0" arrivalPos="246.00" arrivalSpeed="11.34" duration="46.00" routeLength="495.43" waitingTime="0.00" waitingCount="0" stopTime="0.00" timeLoss="4.78" rerouteNo="0" devices="tripinfo_flow_WB.8 routing_flow_WB.8" vType="default" speedFactor="0.89" vaporized=""/>
    <tripinfo id="flow_SB.6" depart="135.00" departLane="SB_in_0" departPos="5.10" departSpeed="13.54" departDelay="0.84" arrival="199.00" arrivalLane="SB_out_0" arrivalPos="242.80" arrivalSpeed="12.55" duration="64.00" routeLength="494.90" waitingTime="20.00" waitingCount="1" stopTime="0.00" timeLoss="27.32" rerouteNo="0" devices="tripinfo_flow_SB.6 routing_flow_SB.6" vType="default" speedFactor="0.97" vaporized=""/>
    <tripinfo id="flow_NB.8" depart="149.00" departLane="NB_in_0" departPos="5.10" departSpeed="11.47" departDelay="0.54" arrival="202.00" arrivalLane="WB_out_0" arrivalPos="242.80" arrivalSpeed="10.48" duration="53.00" routeLength="489.53" waitingTime="3.00" waitingCount="1" stopTime="0.00" timeLoss="9.63" rerouteNo="0" devices="tripinfo_flow_NB.8 routing_flow_NB.8" vType="default" speedFactor="0.83" vaporized=""/>
    <tripinfo id="flow_SB.7" depart="157.00" departLane="SB_in_0" departPos="5.10" departSpeed="12.12" departDelay="0.48" arrival="203.00" arrivalLane="SB_out_0" arrivalPos="242.80" arrivalSpeed="11.66" duration="46.00" routeLength="494.90" waitingTime="0.00" waitingCount="0" stopTime="0.00" timeLoss="4.33" rerouteNo="0" devices="tripinfo_flow_SB.7 routing_flow_SB.7" vType="default" speedFactor="0.87" vaporized=""/>
    <tripinfo id="flow_NB.9" depart="168.00" departLane="NB_in_0" departPos="5.10" departSpeed="13.18" departDelay="0.99" arrival="210.00" arrivalLane="WB_out_0" arrivalPos="242.80" arrivalSpeed="12.53" duration="42.00" routeLength="489.53" waitingTime="0.00" waitingCount="0" stopTime="0.00" timeLoss="3.49" rerouteNo="0" devices="tripinfo_flow_NB.9 routing_flow_NB.9" vType="default" speedFactor="0.95" vaporized=""/>
    <tripinfo id="flow_SB.8" depart="179.00" departLane="SB_in_0" departPos="5.10" departSpeed="12.94" departDelay="0.12" arrival="220.00" arrivalLane="SB_out_0" arrivalPos="242.80" arrivalSpeed="12.82" duration="41.00" routeLength="494.90" waitingTime="0.00" waitingCount="0" stopTime="0.00" timeLoss="2.02" rerouteNo="0" devices="tripinfo_flow_SB.8 routing_flow_SB.8" vType="default" speedFactor="0.93" vaporized=""/>
    <tripinfo id="flow_NB.10" depart="186.00" departLane="NB_in_0" departPos="5.10" departSpeed="13.89" departDelay="0.43" arrival="225.00" arrivalLane="WB_out_0" arrivalPos="242.80" arrivalSpeed="13.83" duration="39.00" routeLength="489.53" waitingTime="0.00" waitingCount="0" stopTime="0.00" timeLoss="2.83" rerouteNo="0" devices="tripinfo_flow_NB.10 routing_flow_NB.10" vType="default" speedFactor="1.18" vaporized=""/>
    <tripinfo id="flow_WB.9" depart="159.00" departLane="WB_in_0" departPos="5.10" departSpeed="12.74" departDelay="0.95" arrival="241.00" arrivalLane="NB_out_0" arrivalPos="246.00" arrivalSpeed="12.25" duration="82.00" routeLength="495.43" waitingTime="36.00" waitingCount="1" stopTime="0.00" timeLoss="41.88" rerouteNo="0" devices="tripinfo_flow_WB.9 routing_flow_WB.9" vType="default" speedFactor="0.92" vaporized=""/>
    <tripinfo id="flow_WB.10" depart="176.00" departLane="WB_in_0" departPos="5.10" departSpeed="13.89" departDelay="0.39" arrival="243.00" arrivalLane="NB_out_0" arrivalPos="246.00" arrivalSpeed="13.35" duration="67.00" routeLength="495.43" waitingTime="22.00" waitingCount="1" stopTime="0.00" timeLoss="30.38" rerouteNo="0" devices="tripinfo_flow_WB.10 routing_flow_WB.10" vType="default" speedFactor="1.13" vaporized=""/>
    <tripinfo id="flow_WB.11" depart="194.00" departLane="WB_in_0" departPos="5.10" departSpeed="13.89" departDelay="0.83" arrival="245.00" arrivalLane="NB_out_0" arrivalPos="246.00" arrivalSpeed="13.50" duration="51.00" routeLength="495.43" waitingTime="5.00" waitingCount="1" stopTime="0.00" timeLoss="13.68" rerouteNo="0" devices="tripinfo_flow_WB.11 routing_flow_WB.11" vType="default" speedFactor="1.15" vaporized=""/>
    <tripinfo id="flow_NB.11" depart="205.00" departLane="NB_in_0" departPos="5.10" departSpeed="13.89" departDelay="0.87" arrival="257.00" arrivalLane="WB_out_0" arrivalPos="242.80" arrivalSpeed="13.32" duration="52.00" routeLength="489.53" waitingTime="10.00" waitingCount="1" stopTime="0.00" timeLoss="16.42" rerouteNo="0" devices="tripinfo_flow_NB.11 routing_flow_NB.11" vType="default" speedFactor="1.17" vaporized=""/>
    <tripinfo id="flow_SB.9" depart="202.00" departLane="SB_in_0" departPos="5.10" departSpeed="13.89" departDelay="0.76" arrival="258.00" arrivalLane="SB_out_0" arrivalPos="242.80" arrivalSpeed="12.92" duration="56.00" routeLength="494.90" waitingTime="13.00" waitingCount="1" stopTime="0.00" timeLoss="19.48" rerouteNo="0" devices="tripinfo_flow_SB.9 routing_flow_SB.9" vType="default" speedFactor="1.01" vaporized=""/>
    <tripinfo id="flow_NB.12" depart="223.00" departLane="NB_in_0" departPos="5.10" departSpeed="13.89" departDelay="0.32" arrival="263.00" arrivalLane="WB_out_0" arrivalPos="242.80" arrivalSpeed="12.95" duration="40.00" routeLength="489.53" waitingTime="0.00" waitingCount="0" stopTime="0.00" timeLoss="3.46" rerouteNo="0" devices="tripinfo_flow_NB.12 routing_flow_NB.12" vType="default" speedFactor="1.02" vaporized=""/>
    <tripinfo id="flow_SB.10" depart="224.00" departLane="SB_in_0" departPos="5.10" departSpeed="13.52" departDelay="0.40" arrival="263.00" arrivalLane="SB_out_0" arrivalPos="242.80" arrivalSpeed="13.23" duration="39.00" routeLength="494.90" waitingTime="0.00" waitingCount="0" stopTime="0.00" timeLoss="1.57" rerouteNo="0" devices="tripinfo_flow_SB.10 routing_flow_SB.10" vType="default" speedFactor="0.97" vaporized=""/>
    <tripinfo id="flow_NB.13" depart="242.00" departLane="NB_in_0" departPos="5.10" departSpeed="13.89" departDelay="0.76" arrival="281.00" arrivalLane="WB_out_0" arrivalPos="242.80" arrivalSpeed="12.66" duration="39.00" routeLength="489.53" waitingTime="0.00" waitingCount="0" stopTime="0.00" timeLoss="3.08" rerouteNo="0" devices="tripinfo_flow_NB.13 routing_flow_NB.13" vType="default" speedFactor="1.10" vaporized=""/>
    <tripinfo id="flow_SB.11" depart="246.00" departLane="SB_in_0" departPos="5.10" departSpeed="12.51" departDelay="0.04" arrival="289.00" arrivalLane="SB_out_0" arrivalPos="242.80" arrivalSpeed="11.90" duration="43.00" routeLength="494.90" waitingTime="0.00" waitingCount="0" stopTime="0.00" timeLoss="2.63" rerouteNo="0" devices="tripinfo_flow_SB.11 routing_flow_SB.11" vType="default" speedFactor="0.90" vaporized=""/>
    <tripinfo id="flow_WB.12" depart="211.00" departLane="WB_in_0" departPos="5.10" departSpeed="13.82" departDelay="0.27" arrival="298.00" arrivalLane="NB_out_0" arrivalPos="246.00" arrivalSpeed="13.45" duration="87.00" routeLength="495.43" waitingTime="44.00" waitingCount="1" stopTime="0.00" timeLoss="50.04" rerouteNo="0" devices="tripinfo_flow_WB.12 routing_flow_WB.12" vType="default" speedFactor="0.99" vaporized=""/>
    <tripinfo id="flow_WB.13" depart="229.00" departLane="WB_in_0" departPos="5.10" departSpeed="13.89" departDelay="0.71" arrival="300.00" arrivalLane="NB_out_0" arrivalPos="246.00" arrivalSpeed="12.94" duration="71.00" routeLength="495.43" waitingTime="26.00" waitingCount="1" stopTime="0.00" timeLoss="34.39" rerouteNo="0" devices="tripinfo_flow_WB.13 routing_flow_WB.13" vType="default" speedFactor="1.18" vaporized=""/>
    <tripinfo id="flow_WB.14" depart="246.00" departLane="WB_in_0" departPos="5.10" departSpeed="13.89" departDelay="0.15" arrival="303.00" arrivalLane="NB_out_0" arrivalPos="246.00" arrivalSpeed="13.19" duration="57.00" routeLength="495.43" waitingTime="13.00" waitingCount="1" stopTime="0.00" timeLoss="19.91" rerouteNo="0" devices="tripinfo_flow_WB.14 routing_flow_WB.14" vType="default" speedFactor="1.03" vaporized=""/>
    <tripinfo id="flow_WB.15" depart="264.00" departLane="WB_in_0" departPos="5.10" departSpeed="13.89" departDelay="0.59" arrival="305.00" arrivalLane="NB_out_0" arrivalPos="246.00" arrivalSpeed="13.53" duration="41.00" routeLength="495.43" waitingTime="0.00" waitingCount="0" stopTime="0.00" timeLoss="4.44" rerouteNo="0" devices="tripinfo_flow_WB.15 routing_flow_WB.15" vType="default" speedFactor="1.09" vaporized=""/>
    <tripinfo id="flow_SB.12" depart="269.00" departLane="SB_in_0" departPos="5.10" departSpeed="13.89" departDelay="0.68" arrival="316.00" arrivalLane="SB_out_0" arrivalPos="242.80" arrivalSpeed="13.02" duration="47.00" routeLength="494.90" waitingTime="5.00" waitingCount="1" stopTime="0.00" timeLoss="11.36" rerouteNo="0" devices="tripinfo_flow_SB.12 routing_flow_SB.12" vType="default" speedFactor="1.04" vaporized=""/>
    <tripinfo id="flow_NB.14" depart="260.00" departLane="NB_in_0" departPos="5.10" departSpeed="13.29" departDelay="0.20" arrival="318.00" arrivalLane="WB_out_0" arrivalPos="242.80" arrivalSpeed="12.09" duration="58.00" routeLength="489.53" waitingTime="13.00" waitingCount="1" stopTime="0.00" timeLoss="19.76" rerouteNo="0" devices="tripinfo_flow_NB.14 routing_flow_NB.14" vType="default" speedFactor="0.96" vaporized=""/>
    <tripinfo id="flow_NB.15" depart="279.00" departLane="NB_in_0" departPos="5.10" departSpeed="13.89" departDelay="0.65" arrival="320.00" arrivalLane="WB_out_0" arrivalPos="242.80" arrivalSpeed="13.04" duration="41.00" routeLength="489.53" waitingTime="0.00" waitingCount="0" stopTime="0.00" timeLoss="4.50" rerouteNo="0" devices="tripinfo_flow_NB.15 routing_flow_NB.15" vType="default" speedFactor="1.04" vaporized=""/>
    <tripinfo id="flow_SB.13" depart="291.00" departLane="SB_in_0" departPos="5.10" departSpeed="13.85" departDelay="0.32" arrival="329.00" arrivalLane="SB_out_0" arrivalPos="242.80" arrivalSpeed="13.09" duration="38.00" routeLength="494.90" waitingTime="0.00" waitingCount="0" stopTime="0.00" timeLoss="1.73" rerouteNo="0" devices="tripinfo_flow_SB.13 routing_flow_SB.13" vType="default" speedFactor="1.00" vaporized=""/>
    <tripinfo id="flow_NB.16" depart="297.00" departLane="NB_in_0" departPos="5.10" departSpeed="12.51" departDelay="0.09" arrival="341.00" arrivalLane="WB_out_0" arrivalPos="242.80" arrivalSpeed="12.51" duration="44.00" routeLength="489.53" waitingTime="0.00" waitingCount="0" stopTime="0.00" timeLoss="3.87" rerouteNo="0" devices="tripinfo_flow_NB.16 routing_flow_NB.16" vType="default" speedFactor="0.90" vaporized=""/>
    <tripinfo id="flow_WB.16" depart="281.00" departLane="WB_in_0" departPos="5.10" departSpeed="13.89" departDelay="0.02" arrival="357.00" arrivalLane="NB_out_0" arrivalPos="246.00" arrivalSpeed="12.71" duration="76.00" routeLength="495.43" waitingTime="33.00" waitingCount="1" stopTime="0.00" timeLoss="39.29" rerouteNo="0" devices="tripinfo_flow_WB.16 routing_flow_WB.16" vType="default" speedFactor="1.09" vaporized=""/>
    <tripinfo id="flow_WB.17" depart="299.00" departLane="WB_in_0" departPos="5.10" departSpeed="12.18" departDelay="0.46" arrival="362.00" arrivalLane="NB_out_0" arrivalPos="246.00" arrivalSpeed="11.17" duration="63.00" routeLength="495.43" waitingTime="14.00" waitingCount="1" stopTime="0.00" timeLoss="20.87" rerouteNo="0" devices="tripinfo_flow_WB.17 routing_flow_WB.17" vType="default" speedFactor="0.88" vaporized=""/>
    <tripinfo id="flow_WB.18" depart="317.00" departLane="WB_in_0" departPos="5.10" departSpeed="13.89" departDelay="0.90" arrival="363.00" arrivalLane="NB_out_0" arrivalPos="246.00" arrivalSpeed="13.70" duration="46.00" routeLength="495.43" waitingTime="0.00" waitingCount="0" stopTime="0.00" timeLoss="9.89" rerouteNo="0" devices="tripinfo_flow_WB.18 routing_flow_WB.18" vType="default" speedFactor="1.17" vaporized=""/>
    <tripinfo id="flow_NB.17" depart="316.00" departLane="NB_in_0" departPos="5.10" departSpeed="11.87" departDelay="0.53" arrival="378.00" arrivalLane="WB_out_0" arrivalPos="242.80" arrivalSpeed="10.71" duration="62.00" routeLength="489.53" waitingTime="13.00" waitingCount="1" stopTime="0.00" timeLoss="20.07" rerouteNo="0" devices="tripinfo_flow_NB.17 routing_flow_NB.17" vType="default" speedFactor="0.85" vaporized=""/>
    <tripinfo id="flow_SB.14" depart="314.00" departLane="SB_in_0" departPos="5.10" departSpeed="11.81" departDelay="0.96" arrival="379.00" arrivalLane="SB_out_0" arrivalPos="242.80" arrivalSpeed="10.61" duration="65.00" routeLength="494.90" waitingTime="15.00" waitingCount="1" stopTime="0.00" timeLoss="22.75" rerouteNo="0" devices="tripinfo_flow_SB.14 routing_flow_SB.14" vType="default" speedFactor="0.85" vaporized=""/>
    <tripinfo id="flow_NB.18" depart="335.00" departLane="NB_in_0" departPos="5.10" departSpeed="13.89" departDelay="0.97" arrival="380.00" arrivalLane="WB_out_0" arrivalPos="242.80" arrivalSpeed="13.02" duration="45.00" routeLength="489.53" waitingTime="0.00" waitingCount="0" stopTime="0.00" timeLoss="8.49" rerouteNo="0" devices="tripinfo_flow_NB.18 routing_flow_NB.18" vType="default" speedFactor="1.10" vaporized=""/>
    <tripinfo id="flow_SB.15" depart="336.00" departLane="SB_in_0" departPos="5.10" departSpeed="13.89" departDelay="0.60" arrival="381.00" arrivalLane="SB_out_0" arrivalPos="242.80" arrivalSpeed="13.29" duration="45.00" routeLength="494.90" waitingTime="0.00" waitingCount="0" stopTime="0.00" timeLoss="8.56" rerouteNo="0" devices="tripinfo_flow_SB.15 routing_flow_SB.15" vType="default" speedFactor="1.00" vaporized=""/>
    <tripinfo id="flow_SB.16" depart="358.00" departLane="SB_in_0" departPos="5.10" departSpeed="13.89" departDelay="0.24" arrival="396.00" arrivalLane="SB_out_0" arrivalPos="242.80" arrivalSpeed="13.57" duration="38.00" routeLength="494.90" waitingTime="0.00" waitingCount="0" stopTime="0.00" timeLoss="1.93" rerouteNo="0" devices="tripinfo_flow_SB.16 routing_flow_SB.16" vType="default" speedFactor="1.14" vaporized=""/>
    <tripinfo id="flow_NB.19" depart="353.00" departLane="NB_in_0" departPos="5.10" departSpeed="12.49" departDelay="0.42" arrival="398.00" arrivalLane="WB_out_0" arrivalPos="242.80" arrivalSpeed="12.26" duration="45.00" routeLength="489.53" waitingTime="0.00" waitingCount="0" stopTime="0.00" timeLoss="4.11" rerouteNo="0" devices="tripinfo_flow_NB.19 routing_flow_NB.19" vType="default" speedFactor="0.90" vaporized=""/>
    <tripinfo id="flow_WB.19" depart="334.00" departLane="WB_in_0" departPos="5.10" departSpeed="13.89" departDelay="0.34" arrival="416.00" arrivalLane="NB_out_0" arrivalPos="246.00" arrivalSpeed="13.46" duration="82.00" routeLength="495.43" waitingTime="39.00" waitingCount="1" stopTime="0.00" timeLoss="45.02" rerouteNo="0" devices="tripinfo_flow_WB.19 routing_flow_WB.19" vType="default" speedFactor="1.02" vaporized=""/>
    <tripinfo id="flow_WB.20" depart="352.00" departLane="WB_in_0" departPos="5.10" departSpeed="13.83" departDelay="0.78" arrival="418.00" arrivalLane="NB_out_0" arrivalPos="246.00" arrivalSpeed="13.75" duration="66.00" routeLength="495.43" waitingTime="22.00" waitingCount="1" stopTime="0.00" timeLoss="29.33" rerouteNo="0" devices="tripinfo_flow_WB.20 routing_flow_WB.20" vType="default" speedFactor="1.00" vaporized=""/>
    <tripinfo id="flow_WB.21" depart="369.00" departLane="WB_in_0" departPos="5.10" departSpeed="13.89" departDelay="0.22" arrival="420.00" arrivalLane="NB_out_0" arrivalPos="246.00" arrivalSpeed="13.19" duration="51.00" routeLength="495.43" waitingTime="6.00" waitingCount="1" stopTime="0.00" timeLoss="14.37" rerouteNo="0" devices="tripinfo_flow_WB.21 routing_flow_WB.21" vType="default" speedFactor="1.02" vaporized=""/>
    <tripinfo id="flow_NB.20" depart="372.00" departLane="NB_in_0" departPos="5.10" departSpeed="13.47" departDelay="0.86" arrival="435.00" arrivalLane="WB_out_0" arrivalPos="242.80" arrivalSpeed="12.75" duration="63.00" routeLength="489.53" waitingTime="18.00" waitingCount="1" stopTime="0.00" timeLoss="25.79" rerouteNo="0" devices="tripinfo_flow_NB.20 routing_flow_NB.20" vType="default" speedFactor="0.97" vaporized=""/>
    <tripinfo id="flow_SB.17" depart="381.00" departLane="SB_in_0" departPos="5.10" departSpeed="13.89" departDelay="0.88" arrival="435.00" arrivalLane="SB_out_0" arrivalPos="242.80" arrivalSpeed="13.82" duration="54.00" routeLength="494.90" waitingTime="9.00" waitingCount="1" stopTime="0.00" timeLoss="17.45" rerouteNo="0" devices="tripinfo_flow_SB.17 routing_flow_SB.17" vType="default" speedFactor="1.08" vaporized=""/>
    <tripinfo id="flow_NB.21" depart="390.00" departLane="NB_in_0" departPos="5.10" departSpeed="13.89" departDelay="0.30" arrival="437.00" arrivalLane="WB_out_0" arrivalPos="242.80" arrivalSpeed="13.41" duration="47.00" routeLength="489.53" waitingTime="3.00" waitingCount="1" stopTime="0.00" timeLoss="10.33" rerouteNo="0" devices="tripinfo_flow_NB.21 routing_flow_NB.21" vType="default" speedFactor="1.02" vaporized=""/>
    <tripinfo id="flow_SB.18" depart="403.00" departLane="SB_in_0" departPos="5.10" departSpeed="13.71" departDelay="0.52" arrival="442.00" arrivalLane="SB_out_0" arrivalPos="242.80" arrivalSpeed="13.36" duration="39.00" routeLength="494.90" waitingTime="0.00" waitingCount="0" stopTime="0.00" timeLoss="2.00" rerouteNo="0" devices="tripinfo_flow_SB.18 routing_flow_SB.18" vType="default" speedFactor="0.99" vaporized=""/>
    <tripinfo id="flow_NB.22" depart="409.00" departLane="NB_in_0" departPos="5.10" departSpeed="12.26" departDelay="0.75" arrival="455.00" arrivalLane="WB_out_0" arrivalPos="242.80" arrivalSpeed="11.21" duration="46.00" routeLength="489.53" waitingTime="0.00" waitingCount="0" stopTime="0.00" timeLoss="4.45" rerouteNo="0" devices="tripinfo_flow_NB.22 routing_flow_NB.22" vType="default" speedFactor="0.88" vaporized=""/>
    <tripinfo id="flow_SB.19" depart="425.00" departLane="SB_in_0" departPos="5.10" departSpeed="12.70" departDelay="0.16" arrival="466.00" arrivalLane="SB_out_0" arrivalPos="242.80" arrivalSpeed="11.94" duration="41.00" routeLength="494.90" waitingTime="0.00" waitingCount="0" stopTime="0.00" timeLoss="1.99" rerouteNo="0" devices="tripinfo_flow_SB.19 routing_flow_SB.19" vType="default" speedFactor="0.91" vaporized=""/>
    <tripinfo id="flow_NB.23" depart="427.00" departLane="NB_in_0" departPos="5.10" departSpeed="13.89" departDelay="0.19" arrival="466.00" arrivalLane="WB_out_0" arrivalPos="242.80" arrivalSpeed="13.51" duration="39.00" routeLength="489.53" waitingTime="0.00" waitingCount="0" stopTime="0.00" timeLoss="3.18" rerouteNo="0" devices="tripinfo_flow_NB.23 routing_flow_NB.23" vType="default" speedFactor="1.04" vaporized=""/>
    <tripinfo id="flow_WB.22" depart="387.00" departLane="WB_in_0" departPos="5.10" departSpeed="13.89" departDelay="0.66" arrival="475.00" arrivalLane="NB_out_0" arrivalPos="246.00" arrivalSpeed="12.80" duration="88.00" routeLength="495.43" waitingTime="45.00" waitingCount="1" stopTime="0.00" timeLoss="51.48" rerouteNo="0" devices="tripinfo_flow_WB.22 routing_flow_WB.22" vType="default" speedFactor="1.12" vaporized=""/>
    <tripinfo id="flow_WB.23" depart="404.00" departLane="WB_in_0" departPos="5.10" departSpeed="13.02" departDelay="0.10" arrival="479.00" arrivalLane="NB_out_0" arrivalPos="246.00" arrivalSpeed="12.70" duration="75.00" routeLength="495.43" waitingTime="28.00" waitingCount="1" stopTime="0.00" timeLoss="35.64" rerouteNo="0" devices="tripinfo_flow_WB.23 routing_flow_WB.23" vType="default" speedFactor="0.94" vaporized=""/>