<?xml version="1.0" encoding="UTF-8"?>

<!-- generated on 2025-11-10 19:34:21 by Eclipse SUMO sumo Version 1.24.0
<sumoConfiguration xmlns:xsi="http://www.w3.org/2001/XMLSchema-instance" xsi:noNamespaceSchemaLocation="http://sumo.dlr.de/xsd/sumoConfiguration.xsd">

    <input>
        <net-file value="sumo_network.net.xml"/>
        <route-files value="routes.rou.xml"/>
        <additional-files value="ml_traffic_lights.add.xml"/>
    </input>

    <output>
        <summary-output value="sumo_output_ML.xml"/>
        <tripinfo-output value="tripinfo_ML.xml"/>
    </output>

    <time>
        <begin value="0"/>
        <end value="3600"/>
    </time>

    <report>
        <no-warnings value="true"/>
        <no-step-log value="true"/>
    </report>

</sumoConfiguration>
-->

<tripinfos xmlns:xsi="http://www.w3.org/2001/XMLSchema-instance" xsi:noNamespaceSchemaLocation="http://sumo.dlr.de/xsd/tripinfo_file.xsd">
    <tripinfo id="flow_NB.0" depart="0.00" departLane="NB_in_0" departPos="5.10" departSpeed="13.89" departDelay="0.00" arrival="40.00" arrivalLane="EB_out_0" arrivalPos="242.80" arrivalSpeed="13.88" duration="40.00" routeLength="494.70" waitingTime="0.00" waitingCount="0" stopTime="0.00" timeLoss="2.77" rerouteNo="0" devices="tripinfo_flow_NB.0 routing_flow_NB.0" vType="default" speedFactor="1.06" vaporized=""/>
    <tripinfo id="flow_SB.0" depart="0.00" departLane="SB_in_0" departPos="5.10" departSpeed="13.03" departDelay="0.00" arrival="42.00" arrivalLane="WB_out_0" arrivalPos="242.80" arrivalSpeed="12.28" duration="42.00" routeLength="494.70" waitingTime="0.00" waitingCount="0" stopTime="0.00" timeLoss="2.79" rerouteNo="0" devices="tripinfo_flow_SB.0 routing_flow_SB.0" vType="default" speedFactor="0.94" vaporized=""/>
    <tripinfo id="flow_WB.0" depart="0.00" departLane="WB_in_0" departPos="5.10" departSpeed="13.89" departDelay="0.00" arrival="52.00" arrivalLane="NB_out_0" arrivalPos="242.80" arrivalSpeed="12.85" duration="52.00" routeLength="494.70" waitingTime="9.00" waitingCount="1" stopTime="0.00" timeLoss="15.30" rerouteNo="0" devices="tripinfo_flow_WB.0 routing_flow_WB.0" vType="default" speedFactor="1.08" vaporized=""/>
    <tripinfo id="flow_WB.1" depart="18.00" departLane="WB_in_0" departPos="5.10" departSpeed="11.54" departDelay="0.44" arrival="66.00" arrivalLane="NB_out_0" arrivalPos="242.80" arrivalSpeed="10.27" duration="48.00" routeLength="494.70" waitingTime="0.00" waitingCount="0" stopTime="0.00" timeLoss="3.86" rerouteNo="0" devices="tripinfo_flow_WB.1 routing_flow_WB.1" vType="default" speedFactor="0.83" vaporized=""/>
    <tripinfo id="flow_NB.1" depart="19.00" departLane="NB_in_0" departPos="5.10" departSpeed="13.89" departDelay="0.44" arrival="82.00" arrivalLane="EB_out_0" arrivalPos="242.80" arrivalSpeed="13.12" duration="63.00" routeLength="494.70" waitingTime="19.00" waitingCount="1" stopTime="0.00" timeLoss="26.43" rerouteNo="0" devices="tripinfo_flow_NB.1 routing_flow_NB.1" vType="default" speedFactor="1.05" vaporized=""/>
    <tripinfo id="flow_SB.1" depart="23.00" departLane="SB_in_0" departPos="5.10" departSpeed="12.31" departDelay="0.78" arrival="84.00" arrivalLane="WB_out_0" arrivalPos="242.80" arrivalSpeed="11.93" duration="61.00" routeLength="494.70" waitingTime="14.00" waitingCount="1" stopTime="0.00" timeLoss="19.92" rerouteNo="0" devices="tripinfo_flow_SB.1 routing_flow_SB.1" vType="default" speedFactor="0.89" vaporized=""/>
    <tripinfo id="flow_NB.2" depart="38.00" departLane="NB_in_0" departPos="5.10" departSpeed="13.89" departDelay="0.89" arrival="85.00" arrivalLane="EB_out_0" arrivalPos="242.80" arrivalSpeed="13.30" duration="47.00" routeLength="494.70" waitingTime="2.00" waitingCount="1" stopTime="0.00" timeLoss="10.09" rerouteNo="0" devices="tripinfo_flow_NB.2 routing_flow_NB.2" vType="default" speedFactor="1.09" vaporized=""/>
    <tripinfo id="flow_SB.2" depart="45.00" departLane="SB_in_0" departPos="5.10" departSpeed="13.89" departDelay="0.56" arrival="86.00" arrivalLane="WB_out_0" arrivalPos="242.80" arrivalSpeed="13.52" duration="41.00" routeLength="494.70" waitingTime="0.00" waitingCount="0" stopTime="0.00" timeLoss="4.07" rerouteNo="0" devices="tripinfo_flow_SB.2 routing_flow_SB.2" vType="default" speedFactor="1.03" vaporized=""/>
    <tripinfo id="flow_NB.3" depart="56.00" departLane="NB_in_0" departPos="5.10" departSpeed="13.77" departDelay="0.33" arrival="96.00" arrivalLane="EB_out_0" arrivalPos="242.80" arrivalSpeed="13.24" duration="40.00" routeLength="494.70" waitingTime="0.00" waitingCount="0" stopTime="0.00" timeLoss="3.01" rerouteNo="0" devices="tripinfo_flow_NB.3 routing_flow_NB.3" vType="default" speedFactor="0.99" vaporized=""/>
    <tripinfo id="flow_WB.2" depart="36.00" departLane="WB_in_0" departPos="5.10" departSpeed="11.90" departDelay="0.88" arrival="116.00" arrivalLane="NB_out_0" arrivalPos="242.80" arrivalSpeed="11.45" duration="80.00" routeLength="494.70" waitingTime="29.00" waitingCount="1" stopTime="0.00" timeLoss="37.07" rerouteNo="0" devices="tripinfo_flow_WB.2 routing_flow_WB.2" vType="default" speedFactor="0.86" vaporized=""/>
    <tripinfo id="flow_WB.3" depart="53.00" departLane="WB_in_0" departPos="5.10" departSpeed="13.89" departDelay="0.32" arrival="118.00" arrivalLane="NB_out_0" arrivalPos="242.80" arrivalSpeed="13.85" duration="65.00" routeLength="494.70" waitingTime="17.00" waitingCount="1" stopTime="0.00" timeLoss="28.13" rerouteNo="0" devices="tripinfo_flow_WB.3 routing_flow_WB.3" vType="default" speedFactor="1.12" vaporized=""/>
    <tripinfo id="flow_WB.4" depart="71.00" departLane="WB_in_0" departPos="5.10" departSpeed="13.08" departDelay="0.76" arrival="119.00" arrivalLane="NB_out_0" arrivalPos="242.80" arrivalSpeed="12.35" duration="48.00" routeLength="494.70" waitingTime="0.00" waitingCount="0" stopTime="0.00" timeLoss="9.42" rerouteNo="0" devices="tripinfo_flow_WB.4 routing_flow_WB.4" vType="default" speedFactor="0.94" vaporized=""/>
    <tripinfo id="flow_WB.5" depart="88.00" departLane="WB_in_0" departPos="5.10" departSpeed="13.89" departDelay="0.20" arrival="127.00" arrivalLane="NB_out_0" arrivalPos="242.80" arrivalSpeed="13.76" duration="39.00" routeLength="494.70" waitingTime="0.00" waitingCount="0" stopTime="0.00" timeLoss="2.55" rerouteNo="0" devices="tripinfo_flow_WB.5 routing_flow_WB.5" vType="default" speedFactor="1.02" vaporized=""/>
    <tripinfo id="flow_NB.4" depart="75.00" departLane="NB_in_0" departPos="5.10" departSpeed="13.89" departDelay="0.77" arrival="142.00" arrivalLane="EB_out_0" arrivalPos="242.80" arrivalSpeed="13.44" duration="67.00" routeLength="494.70" waitingTime="24.00" waitingCount="1" stopTime="0.00" timeLoss="30.20" rerouteNo="0" devices="tripinfo_flow_NB.4 routing_flow_NB.4" vType="default" speedFactor="1.16" vaporized=""/>
    <tripinfo id="flow_SB.3" depart="67.00" departLane="SB_in_0" departPos="5.10" departSpeed="12.20" departDelay="0.33" arrival="145.00" arrivalLane="WB_out_0" arrivalPos="242.80" arrivalSpeed="11.15" duration="78.00" routeLength="494.70" waitingTime="29.00" waitingCount="1" stopTime="0.00" timeLoss="35.85" rerouteNo="0" devices="tripinfo_flow_SB.3 routing_flow_SB.3" vType="default" speedFactor="0.88" vaporized=""/>
    <tripinfo id="flow_SB.4" depart="89.00" departLane="SB_in_0" departPos="5.10" departSpeed="13.89" departDelay="0.11" arrival="146.00" arrivalLane="WB_out_0" arrivalPos="242.80" arrivalSpeed="13.45" duration="57.00" routeLength="494.70" waitingTime="12.00" waitingCount="1" stopTime="0.00" timeLoss="20.60" rerouteNo="0" devices="tripinfo_flow_SB.4 routing_flow_SB.4" vType="default" speedFactor="1.01" vaporized=""/>
    <tripinfo id="flow_NB.5" depart="93.00" departLane="NB_in_0" departPos="5.10" departSpeed="12.36" departDelay="0.22" arrival="147.00" arrivalLane="EB_out_0" arrivalPos="242.80" arrivalSpeed="11.79" duration="54.00" routeLength="494.70" waitingTime="4.00" waitingCount="1" stopTime="0.00" timeLoss="12.58" rerouteNo="0" devices="tripinfo_flow_NB.5 routing_flow_NB.5" vType="default" speedFactor="0.89" vaporized=""/>
    <tripinfo id="flow_SB.5" depart="112.00" departLane="SB_in_0" departPos="5.10" departSpeed="13.18" departDelay="0.89" arrival="154.00" arrivalLane="WB_out_0" arrivalPos="242.80" arrivalSpeed="12.14" duration="42.00" routeLength="494.70" waitingTime="0.00" waitingCount="0" stopTime="0.00" timeLoss="3.46" rerouteNo="0" devices="tripinfo_flow_SB.5 routing_flow_SB.5" vType="default" speedFactor="0.95" vaporized=""/>
    <tripinfo id="flow_NB.6" depart="112.00" departLane="NB_in_0" departPos="5.10" departSpeed="12.74" departDelay="0.66" arrival="155.00" arrivalLane="EB_out_0" arrivalPos="242.80" arrivalSpeed="12.67" duration="43.00" routeLength="494.70" waitingTime="0.00" waitingCount="0" stopTime="0.00" timeLoss="3.39" rerouteNo="0" devices="tripinfo_flow_NB.6 routing_flow_NB.6" vType="default" speedFactor="0.92" vaporized=""/>
    <tripinfo id="flow_WB.6" depart="106.00" departLane="WB_in_0" departPos="5.10" departSpeed="12.12" departDelay="0.63" arrival="175.00" arrivalLane="NB_out_0" arrivalPos="242.80" arrivalSpeed="11.24" duration="69.00" routeLength="494.70" waitingTime="20.00" waitingCount="1" stopTime="0.00" timeLoss="27.05" rerouteNo="0" devices="tripinfo_flow_WB.6 routing_flow_WB.6" vType="default" speedFactor="0.87" vaporized=""/>
    <tripinfo id="flow_WB.7" depart="123.00" departLane="WB_in_0" departPos="5.10" departSpeed="12.94" departDelay="0.07" arrival="177.00" arrivalLane="NB_out_0" arrivalPos="242.80" arrivalSpeed="12.83" duration="54.00" routeLength="494.70" waitingTime="5.00" waitingCount="1" stopTime="0.00" timeLoss="14.38" rerouteNo="0" devices="tripinfo_flow_WB.7 routing_flow_WB.7" vType="default" speedFactor="0.93" vaporized=""/>
    <tripinfo id="flow_WB.8" depart="141.00" departLane="WB_in_0" departPos="5.10" departSpeed="13.89" departDelay="0.51" arrival="180.00" arrivalLane="NB_out_0" arrivalPos="242.80" arrivalSpeed="13.88" duration="39.00" routeLength="494.70" waitingTime="0.00" waitingCount="0" stopTime="0.00" timeLoss="2.55" rerouteNo="0" devices="tripinfo_flow_WB.8 routing_flow_WB.8" vType="default" speedFactor="1.17" vaporized=""/>
    <tripinfo id="flow_NB.7" depart="130.00" departLane="NB_in_0" departPos="5.10" departSpeed="13.89" departDelay="0.10" arrival="202.00" arrivalLane="EB_out_0" arrivalPos="242.80" arrivalSpeed="13.85" duration="72.00" routeLength="494.70" waitingTime="27.00" waitingCount="1" stopTime="0.00" timeLoss="35.57" rerouteNo="0" devices="tripinfo_flow_NB.7 routing_flow_NB.7" vType="default" speedFactor="1.18" vaporized=""/>
    <tripinfo id="flow_SB.6" depart="134.00" departLane="SB_in_0" departPos="5.10" departSpeed="13.89" departDelay="0.67" arrival="202.00" arrivalLane="WB_out_0" arrivalPos="242.80" arrivalSpeed="13.48" duration="68.00" routeLength="494.70" waitingTime="24.00" waitingCount="1" stopTime="0.00" timeLoss="31.19" rerouteNo="0" devices="tripinfo_flow_SB.6 routing_flow_SB.6" vType="default" speedFactor="1.01" vaporized=""/>
    <tripinfo id="flow_NB.8" depart="149.00" departLane="NB_in_0" departPos="5.10" departSpeed="13.89" departDelay="0.54" arrival="205.00" arrivalLane="EB_out_0" arrivalPos="242.80" arrivalSpeed="13.42" duration="56.00" routeLength="494.70" waitingTime="11.00" waitingCount="1" stopTime="0.00" timeLoss="19.10" rerouteNo="0" devices="tripinfo_flow_NB.8 routing_flow_NB.8" vType="default" speedFactor="1.02" vaporized=""/>
    <tripinfo id="flow_SB.7" depart="156.00" departLane="SB_in_0" departPos="5.10" departSpeed="13.52" departDelay="0.45" arrival="205.00" arrivalLane="WB_out_0" arrivalPos="242.80" arrivalSpeed="12.93" duration="49.00" routeLength="494.70" waitingTime="3.00" waitingCount="1" stopTime="0.00" timeLoss="11.00" rerouteNo="0" devices="tripinfo_flow_SB.7 routing_flow_SB.7" vType="default" speedFactor="0.97" vaporized=""/>
    <tripinfo id="flow_NB.9" depart="168.00" departLane="NB_in_0" departPos="5.10" departSpeed="12.51" departDelay="0.99" arrival="212.00" arrivalLane="EB_out_0" arrivalPos="242.80" arrivalSpeed="11.89" duration="44.00" routeLength="494.70" waitingTime="0.00" waitingCount="0" stopTime="0.00" timeLoss="3.30" rerouteNo="0" devices="tripinfo_flow_NB.9 routing_flow_NB.9" vType="default" speedFactor="0.90" vaporized=""/>
    <tripinfo id="flow_SB.8" depart="178.00" departLane="SB_in_0" departPos="5.10" departSpeed="13.29" departDelay="0.22" arrival="220.00" arrivalLane="WB_out_0" arrivalPos="242.80" arrivalSpeed="12.17" duration="42.00" routeLength="494.70" waitingTime="0.00" waitingCount="0" stopTime="0.00" timeLoss="3.42" rerouteNo="0" devices="tripinfo_flow_SB.8 routing_flow_SB.8" vType="default" speedFactor="0.96" vaporized=""/>
    <tripinfo id="flow_NB.10" depart="186.00" departLane="NB_in_0" departPos="5.10" departSpeed="13.89" departDelay="0.43" arrival="225.00" arrivalLane="EB_out_0" arrivalPos="242.80" arrivalSpeed="13.08" duration="39.00" routeLength="494.70" waitingTime="0.00" waitingCount="0" stopTime="0.00" timeLoss="2.76" rerouteNo="0" devices="tripinfo_flow_NB.10 routing_flow_NB.10" vType="default" speedFactor="1.04" vaporized=""/>
    <tripinfo id="flow_WB.9" depart="159.00" departLane="WB_in_0" departPos="5.10" departSpeed="13.89" departDelay="0.95" arrival="232.00" arrivalLane="NB_out_0" arrivalPos="242.80" arrivalSpeed="13.43" duration="73.00" routeLength="494.70" waitingTime="29.00" waitingCount="1" stopTime="0.00" timeLoss="36.16" rerouteNo="0" devices="tripinfo_flow_WB.9 routing_flow_WB.9" vType="default" speedFactor="1.18" vaporized=""/>
    <tripinfo id="flow_WB.10" depart="176.00" departLane="WB_in_0" departPos="5.10" departSpeed="13.89" departDelay="0.39" arrival="234.00" arrivalLane="NB_out_0" arrivalPos="242.80" arrivalSpeed="13.57" duration="58.00" routeLength="494.70" waitingTime="15.00" waitingCount="1" stopTime="0.00" timeLoss="21.48" rerouteNo="0" devices="tripinfo_flow_WB.10 routing_flow_WB.10" vType="default" speedFactor="1.03" vaporized=""/>
    <tripinfo id="flow_WB.11" depart="194.00" departLane="WB_in_0" departPos="5.10" departSpeed="13.89" departDelay="0.83" arrival="236.00" arrivalLane="NB_out_0" arrivalPos="242.80" arrivalSpeed="13.09" duration="42.00" routeLength="494.70" waitingTime="0.00" waitingCount="0" stopTime="0.00" timeLoss="5.35" rerouteNo="0" devices="tripinfo_flow_WB.11 routing_flow_WB.11" vType="default" speedFactor="1.09" vaporized=""/>
    <tripinfo id="flow_WB.12" depart="211.00" departLane="WB_in_0" departPos="5.10" departSpeed="11.81" departDelay="0.27" arrival="257.00" arrivalLane="NB_out_0" arrivalPos="242.80" arrivalSpeed="11.64" duration="46.00" routeLength="494.70" waitingTime="0.00" waitingCount="0" stopTime="0.00" timeLoss="3.10" rerouteNo="0" devices="tripinfo_flow_WB.12 routing_flow_WB.12" vType="default" speedFactor="0.85" vaporized=""/>
    <tripinfo id="flow_SB.9" depart="200.00" departLane="SB_in_0" departPos="5.10" departSpeed="13.85" departDelay="0.00" arrival="262.00" arrivalLane="WB_out_0" arrivalPos="242.80" arrivalSpeed="13.48" duration="62.00" routeLength="494.70" waitingTime="18.00" waitingCount="1" stopTime="0.00" timeLoss="25.06" rerouteNo="0" devices="tripinfo_flow_SB.9 routing_flow_SB.9" vType="default" speedFactor="1.00" vaporized=""/>
    <tripinfo id="flow_NB.11" depart="205.00" departLane="NB_in_0" departPos="5.10" departSpeed="12.51" departDelay="0.87" arrival="264.00" arrivalLane="EB_out_0" arrivalPos="242.80" arrivalSpeed="11.98" duration="59.00" routeLength="494.70" waitingTime="11.00" waitingCount="1" stopTime="0.00" timeLoss="18.01" rerouteNo="0" devices="tripinfo_flow_NB.11 routing_flow_NB.11" vType="default" speedFactor="0.90" vaporized=""/>
    <tripinfo id="flow_SB.10" depart="223.00" departLane="SB_in_0" departPos="5.10" departSpeed="13.89" departDelay="0.78" arrival="264.00" arrivalLane="WB_out_0" arrivalPos="242.80" arrivalSpeed="13.06" duration="41.00" routeLength="494.70" waitingTime="0.00" waitingCount="0" stopTime="0.00" timeLoss="3.95" rerouteNo="0" devices="tripinfo_flow_SB.10 routing_flow_SB.10" vType="default" speedFactor="1.02" vaporized=""/>
    <tripinfo id="flow_NB.12" depart="223.00" departLane="NB_in_0" departPos="5.10" departSpeed="13.89" departDelay="0.32" arrival="265.00" arrivalLane="EB_out_0" arrivalPos="242.80" arrivalSpeed="13.67" duration="42.00" routeLength="494.70" waitingTime="0.00" waitingCount="0" stopTime="0.00" timeLoss="5.83" rerouteNo="0" devices="tripinfo_flow_NB.12 routing_flow_NB.12" vType="default" speedFactor="1.17" vaporized=""/>
    <tripinfo id="flow_NB.13" depart="242.00" departLane="NB_in_0" departPos="5.10" departSpeed="13.83" departDelay="0.76" arrival="282.00" arrivalLane="EB_out_0" arrivalPos="242.80" arrivalSpeed="13.00" duration="40.00" routeLength="494.70" waitingTime="0.00" waitingCount="0" stopTime="0.00" timeLoss="2.84" rerouteNo="0" devices="tripinfo_flow_NB.13 routing_flow_NB.13" vType="default" speedFactor="1.00" vaporized=""/>
    <tripinfo id="flow_SB.11" depart="245.00" departLane="SB_in_0" departPos="5.10" departSpeed="12.49" departDelay="0.56" arrival="289.00" arrivalLane="WB_out_0" arrivalPos="242.80" arrivalSpeed="11.74" duration="44.00" routeLength="494.70" waitingTime="0.00" waitingCount="0" stopTime="0.00" timeLoss="3.24" rerouteNo="0" devices="tripinfo_flow_SB.11 routing_flow_SB.11" vType="default" speedFactor="0.90" vaporized=""/>
    <tripinfo id="flow_WB.13" depart="229.00" departLane="WB_in_0" departPos="5.10" departSpeed="13.89" departDelay="0.71" arrival="292.00" arrivalLane="NB_out_0" arrivalPos="242.80" arrivalSpeed="13.09" duration="63.00" routeLength="494.70" waitingTime="18.00" waitingCount="1" stopTime="0.00" timeLoss="26.74" rerouteNo="0" devices="tripinfo_flow_WB.13 routing_flow_WB.13" vType="default" speedFactor="1.10" vaporized=""/>
    <tripinfo id="flow_WB.14" depart="246.00" departLane="WB_in_0" departPos="5.10" departSpeed="13.89" departDelay="0.15" arrival="294.00" arrivalLane="NB_out_0" arrivalPos="242.80" arrivalSpeed="13.28" duration="48.00" routeLength="494.70" waitingTime="4.00" waitingCount="1" stopTime="0.00" timeLoss="11.43" rerouteNo="0" devices="tripinfo_flow_WB.14 routing_flow_WB.14" vType="default" speedFactor="1.14" vaporized=""/>
    <tripinfo id="flow_WB.15" depart="264.00" departLane="WB_in_0" departPos="5.10" departSpeed="13.89" departDelay="0.59" arrival="303.00" arrivalLane="NB_out_0" arrivalPos="242.80" arrivalSpeed="13.77" duration="39.00" routeLength="494.70" waitingTime="0.00" waitingCount="0" stopTime="0.00" timeLoss="2.29" rerouteNo="0" devices="tripinfo_flow_WB.15 routing_flow_WB.15" vType="default" speedFactor="1.08" vaporized=""/>
    <tripinfo id="flow_NB.14" depart="260.00" departLane="NB_in_0" departPos="5.10" departSpeed="13.47" departDelay="0.20" arrival="322.00" arrivalLane="EB_out_0" arrivalPos="242.80" arrivalSpeed="12.89" duration="62.00" routeLength="494.70" waitingTime="18.00" waitingCount="1" stopTime="0.00" timeLoss="24.31" rerouteNo="0" devices="tripinfo_flow_NB.14 routing_flow_NB.14" vType="default" speedFactor="0.97" vaporized=""/>
    <tripinfo id="flow_SB.12" depart="267.00" departLane="SB_in_0" departPos="5.10" departSpeed="13.89" departDelay="0.34" arrival="322.00" arrivalLane="WB_out_0" arrivalPos="242.80" arrivalSpeed="12.82" duration="55.00" routeLength="494.70" waitingTime="11.00" waitingCount="1" stopTime="0.00" timeLoss="18.37" rerouteNo="0" devices="tripinfo_flow_SB.12 routing_flow_SB.12" vType="default" speedFactor="1.02" vaporized=""/>
    <tripinfo id="flow_NB.15" depart="279.00" departLane="NB_in_0" departPos="5.10" departSpeed="13.71" departDelay="0.65" arrival="324.00" arrivalLane="EB_out_0" arrivalPos="242.80" arrivalSpeed="13.42" duration="45.00" routeLength="494.70" waitingTime="0.00" waitingCount="0" stopTime="0.00" timeLoss="7.76" rerouteNo="0" devices="tripinfo_flow_NB.15 routing_flow_NB.15" vType="default" speedFactor="0.99" vaporized=""/>
    <tripinfo id="flow_SB.13" depart="289.00" departLane="SB_in_0" departPos="5.10" departSpeed="12.60" departDelay="0.11" arrival="333.00" arrivalLane="WB_out_0" arrivalPos="242.80" arrivalSpeed="12.47" duration="44.00" routeLength="494.70" waitingTime="0.00" waitingCount="0" stopTime="0.00" timeLoss="3.20" rerouteNo="0" devices="tripinfo_flow_SB.13 routing_flow_SB.13" vType="default" speedFactor="0.91" vaporized=""/>
    <tripinfo id="flow_NB.16" depart="297.00" departLane="NB_in_0" departPos="5.10" departSpeed="13.89" departDelay="0.09" arrival="336.00" arrivalLane="EB_out_0" arrivalPos="242.80" arrivalSpeed="13.52" duration="39.00" routeLength="494.70" waitingTime="0.00" waitingCount="0" stopTime="0.00" timeLoss="2.81" rerouteNo="0" devices="tripinfo_flow_NB.16 routing_flow_NB.16" vType="default" speedFactor="1.04" vaporized=""/>
    <tripinfo id="flow_EB.0" depart="0.00" departLane="EB_in_0" departPos="5.10" departSpeed="13.89" departDelay="0.00" arrival="340.00" arrivalLane="SB_out_0" arrivalPos="242.80" arrivalSpeed="13.05" duration="340.00" routeLength="480.50" waitingTime="301.00" waitingCount="1" stopTime="0.00" timeLoss="305.01" rerouteNo="0" devices="tripinfo_flow_EB.0 routing_flow_EB.0" vType="default" speedFactor="1.01" vaporized=""/>
    <tripinfo id="flow_WB.16" depart="281.00" departLane="WB_in_0" departPos="5.10" departSpeed="12.26" departDelay="0.02" arrival="355.00" arrivalLane="NB_out_0" arrivalPos="242.80" arrivalSpeed="11.57" duration="74.00" routeLength="494.70" waitingTime="26.00" waitingCount="1" stopTime="0.00" timeLoss="32.45" rerouteNo="0" devices="tripinfo_flow_WB.16 routing_flow_WB.16" vType="default" speedFactor="0.88" vaporized=""/>
    <tripinfo id="flow_WB.17" depart="299.00" departLane="WB_in_0" departPos="5.10" departSpeed="13.89" departDelay="0.46" arrival="357.00" arrivalLane="NB_out_0" arrivalPos="242.80" arrivalSpeed="13.04" duration="58.00" routeLength="494.70" waitingTime="11.00" waitingCount="1" stopTime="0.00" timeLoss="20.69" rerouteNo="0" devices="tripinfo_flow_WB.17 routing_flow_WB.17" vType="default" speedFactor="1.02" vaporized=""/>
    <tripinfo id="flow_WB.18" depart="317.00" departLane="WB_in_0" departPos="5.10" departSpeed="13.89" departDelay="0.90" arrival="358.00" arrivalLane="NB_out_0" arrivalPos="242.80" arrivalSpeed="13.46" duration="41.00" routeLength="494.70" waitingTime="0.00" waitingCount="0" stopTime="0.00" timeLoss="4.45" rerouteNo="0" devices="tripinfo_flow_WB.18 routing_flow_WB.18" vType="default" speedFactor="1.06" vaporized=""/>
    <tripinfo id="flow_WB.19" depart="334.00" departLane="WB_in_0" departPos="5.10" departSpeed="13.89" departDelay="0.34" arrival="374.00" arrivalLane="NB_out_0" arrivalPos="242.80" arrivalSpeed="13.36" duration="40.00" routeLength="494.70" waitingTime="0.00" waitingCount="0" stopTime="0.00" timeLoss="2.76" rerouteNo="0" devices="tripinfo_flow_WB.19 routing_flow_WB.19" vType="default" speedFactor="1.03" vaporized=""/>
    <tripinfo id="flow_SB.14" depart="312.00" departLane="SB_in_0" departPos="5.10" departSpeed="13.51" departDelay="0.89" arrival="383.00" arrivalLane="WB_out_0" arrivalPos="242.80" arrivalSpeed="13.34" duration="71.00" routeLength="494.70" waitingTime="26.00" waitingCount="1" stopTime="0.00" timeLoss="32.82" rerouteNo="0" devices="tripinfo_flow_SB.14 routing_flow_SB.14" vType="default" speedFactor="0.97" vaporized=""/>
    <tripinfo id="flow_NB.17" depart="316.00" departLane="NB_in_0" departPos="5.10" departSpeed="13.06" departDelay="0.53" arrival="383.00" arrivalLane="EB_out_0" arrivalPos="242.80" arrivalSpeed="12.37" duration="67.00" routeLength="494.70" waitingTime="21.00" waitingCount="1" stopTime="0.00" timeLoss="28.40" rerouteNo="0" devices="tripinfo_flow_NB.17 routing_flow_NB.17" vType="default" speedFactor="0.94" vaporized=""/>
    <tripinfo id="flow_SB.15" depart="334.00" departLane="SB_in_0" departPos="5.10" departSpeed="13.68" departDelay="0.67" arrival="385.00" arrivalLane="WB_out_0" arrivalPos="242.80" arrivalSpeed="13.35" duration="51.00" routeLength="494.70" waitingTime="5.00" waitingCount="1" stopTime="0.00" timeLoss="13.25" rerouteNo="0" devices="tripinfo_flow_SB.15 routing_flow_SB.15" vType="default" speedFactor="0.98" vaporized=""/>
    <tripinfo id="flow_NB.18" depart="335.00" departLane="NB_in_0" departPos="5.10" departSpeed="13.64" departDelay="0.97" arrival="385.00" arrivalLane="EB_out_0" arrivalPos="242.80" arrivalSpeed="12.58" duration="50.00" routeLength="494.70" waitingTime="4.00" waitingCount="1" stopTime="0.00" timeLoss="12.68" rerouteNo="0" devices="tripinfo_flow_NB.18 routing_flow_NB.18" vType="default" speedFactor="0.98" vaporized=""/>
    <tripinfo id="flow_NB.19" depart="353.00" departLane="NB_in_0" departPos="5.10" departSpeed="13.89" departDelay="0.42" arrival="392.00" arrivalLane="EB_out_0" arrivalPos="242.80" arrivalSpeed="12.84" duration="39.00" routeLength="494.70" waitingTime="0.00" waitingCount="0" stopTime="0.00" timeLoss="2.60" rerouteNo="0" devices="tripinfo_flow_NB.19 routing_flow_NB.19" vType="default" speedFactor="1.03" vaporized=""/>
    <tripinfo id="flow_SB.16" depart="356.00" departLane="SB_in_0" departPos="5.10" departSpeed="13.89" departDelay="0.45" arrival="395.00" arrivalLane="WB_out_0" arrivalPos="242.80" arrivalSpeed="13.73" duration="39.00" routeLength="494.70" waitingTime="0.00" waitingCount="0" stopTime="0.00" timeLoss="2.85" rerouteNo="0" devices="tripinfo_flow_SB.16 routing_flow_SB.16" vType="default" speedFactor="1.02" vaporized=""/>
    <tripinfo id="flow_WB.20" depart="352.00" departLane="WB_in_0" departPos="5.10" departSpeed="13.89" departDelay="0.78" arrival="412.00" arrivalLane="NB_out_0" arrivalPos="242.80" arrivalSpeed="13.50" duration="60.00" routeLength="494.70" waitingTime="16.00" waitingCount="1" stopTime="0.00" timeLoss="23.86" rerouteNo="0" devices="tripinfo_flow_WB.20 routing_flow_WB.20" vType="default" speedFactor="1.09" vaporized=""/>
    <tripinfo id="flow_WB.21" depart="369.00" departLane="WB_in_0" departPos="5.10" departSpeed="13.89" departDelay="0.22" arrival="414.00" arrivalLane="NB_out_0" arrivalPos="242.80" arrivalSpeed="12.65" duration="45.00" routeLength="494.70" waitingTime="2.00" waitingCount="1" stopTime="0.00" timeLoss="8.83" rerouteNo="0" devices="tripinfo_flow_WB.21 routing_flow_WB.21" vType="default" speedFactor="1.15" vaporized=""/>
    <tripinfo id="flow_WB.22" depart="387.00" departLane="WB_in_0" departPos="5.10" departSpeed="13.89" departDelay="0.66" arrival="427.00" arrivalLane="NB_out_0" arrivalPos="242.80" arrivalSpeed="12.94" duration="40.00" routeLength="494.70" waitingTime="0.00" waitingCount="0" stopTime="0.00" timeLoss="3.06" rerouteNo="0" devices="tripinfo_flow_WB.22 routing_flow_WB.22" vType="default" speedFactor="1.01" vaporized=""/>
    <tripinfo id="flow_NB.20" depart="372.00" departLane="NB_in_0" departPos="5.10" departSpeed="13.56" departDelay="0.86" arrival="442.00" arrivalLane="EB_out_0" arrivalPos="242.80" arrivalSpeed="12.68" duration="70.00" routeLength="494.70" waitingTime="26.00" waitingCount="1" stopTime="0.00" timeLoss="32.63" rerouteNo="0" devices="tripinfo_flow_NB.20 routing_flow_NB.20" vType="default" speedFactor="0.98" vaporized=""/>
    <tripinfo id="flow_SB.17" depart="378.00" departLane="SB_in_0" departPos="5.10" departSpeed="13.89" departDelay="0.23" arrival="442.00" arrivalLane="WB_out_0" arrivalPos="242.80" arrivalSpeed="12.74" duration="64.00" routeLength="494.70" waitingTime="20.00" waitingCount="1" stopTime="0.00" timeLoss="27.35" rerouteNo="0" devices="tripinfo_flow_SB.17 routing_flow_SB.17" vType="default" speedFactor="1.00" vaporized=""/>
    <tripinfo id="flow_NB.21" depart="390.00" departLane="NB_in_0" departPos="5.10" departSpeed="13.89" departDelay="0.30" arrival="444.00" arrivalLane="EB_out_0" arrivalPos="242.80" arrivalSpeed="13.37" duration="54.00" routeLength="494.70" waitingTime="9.00" waitingCount="1" stopTime="0.00" timeLoss="17.26" rerouteNo="0" devices="tripinfo_flow_NB.21 routing_flow_NB.21" vType="default" speedFactor="1.02" vaporized=""/>
    <tripinfo id="flow_SB.18" depart="400.00" departLane="SB_in_0" departPos="5.10" departSpeed="12.39" departDelay="0.00" arrival="447.00" arrivalLane="WB_out_0" arrivalPos="242.80" arrivalSpeed="11.76" duration="47.00" routeLength="494.70" waitingTime="0.00" waitingCount="0" stopTime="0.00" timeLoss="5.66" rerouteNo="0" devices="tripinfo_flow_SB.18 routing_flow_SB.18" vType="default" speedFactor="0.89" vaporized=""/>
    <tripinfo id="flow_NB.22" depart="409.00" departLane="NB_in_0" departPos="5.10" departSpeed="12.80" departDelay="0.75" arrival="452.00" arrivalLane="EB_out_0" arrivalPos="242.80" arrivalSpeed="12.10" duration="43.00" routeLength="494.70" waitingTime="0.00" waitingCount="0" stopTime="0.00" timeLoss="3.45" rerouteNo="0" devices="tripinfo_flow_NB.22 routing_flow_NB.22" vType="default" speedFactor="0.92" vaporized=""/>
    <tripinfo id="flow_SB.19" depart="423.00" departLane="SB_in_0" departPos="5.10" departSpeed="13.89" departDelay="0.78" arrival="462.00" arrivalLane="WB_out_0" arrivalPos="242.80" arrivalSpeed="13.49" duration="39.00" routeLength="494.70" waitingTime="0.00" waitingCount="0" stopTime="0.00" timeLoss="2.55" rerouteNo="0" devices="tripinfo_flow_SB.19 routing_flow_SB.19" vType="default" speedFactor="1.01" vaporized=""/>
    <tripinfo id="flow_WB.23" depart="404.00" departLane="WB_in_0" departPos="5.10" departSpeed="11.58" departDelay="0.10" arrival="476.00" arrivalLane="NB_out_0" arrivalPos="242.80" arrivalSpeed="11.45" duration="72.00" routeLength="494.70" waitingTime="20.00" waitingCount="1" stopTime="0.00" timeLoss="27.67" rerouteNo="0" devices="tripinfo_flow_WB.23 routing_flow_WB.23" vType="default" speedFactor="0.83" vaporized=""/>