<?xml version="1.0" encoding="UTF-8"?>

<!-- generated on 2025-11-10 21:26:49 by Eclipse SUMO sumo Version 1.24.0
<sumoConfiguration xmlns:xsi="http://www.w3.org/2001/XMLSchema-instance" xsi:noNamespaceSchemaLocation="http://sumo.dlr.de/xsd/sumoConfiguration.xsd">

    <input>
        <net-file value="sumo_network.net.xml"/>
        <route-files value="routes.rou.xml"/>
        <additional-files value="webster_traffic_lights.add.xml"/>
    </input>

    <output>
        <summary-output value="sumo_output_Webster.xml"/>
        <tripinfo-output value="tripinfo_Webster.xml"/>
    </output>

    <time>
        <begin value="0"/>
        <end value="3600"/>
    </time>

    <report>
        <no-warnings value="true"/>
        <no-step-log value="true"/>
    </report>

</sumoConfiguration>
-->

<tripinfos xmlns:xsi="http://www.w3.org/2001/XMLSchema-instance" xsi:noNamespaceSchemaLocation="http://sumo.dlr.de/xsd/tripinfo_file.xsd">
    <tripinfo id="flow_NB.0" depart="0.00" departLane="NB_in_0" departPos="5.10" departSpeed="13.89" departDelay="0.00" arrival="39.00" arrivalLane="EB_out_0" arrivalPos="242.80" arrivalSpeed="13.22" duration="39.00" routeLength="494.70" waitingTime="0.00" waitingCount="0" stopTime="0.00" timeLoss="2.85" rerouteNo="0" devices="tripinfo_flow_NB.0 routing_flow_NB.0" vType="default" speedFactor="1.06" vaporized=""/>
    <tripinfo id="flow_SB.0" depart="0.00" departLane="SB_in_0" departPos="5.10" departSpeed="13.03" departDelay="0.00" arrival="42.00" arrivalLane="WB_out_0" arrivalPos="242.80" arrivalSpeed="12.73" duration="42.00" routeLength="494.70" waitingTime="0.00" waitingCount="0" stopTime="0.00" timeLoss="2.91" rerouteNo="0" devices="tripinfo_flow_SB.0 routing_flow_SB.0" vType="default" speedFactor="0.94" vaporized=""/>
    <tripinfo id="flow_NB.1" depart="2.00" departLane="NB_in_0" departPos="5.10" departSpeed="13.89" departDelay="0.75" arrival="42.00" arrivalLane="EB_out_0" arrivalPos="242.80" arrivalSpeed="13.23" duration="40.00" routeLength="494.70" waitingTime="0.00" waitingCount="0" stopTime="0.00" timeLoss="3.15" rerouteNo="0" devices="tripinfo_flow_NB.1 routing_flow_NB.1" vType="default" speedFactor="1.03" vaporized=""/>
    <tripinfo id="flow_NB.2" depart="3.00" departLane="NB_in_0" departPos="5.10" departSpeed="10.58" departDelay="0.50" arrival="48.00" arrivalLane="EB_out_0" arrivalPos="242.80" arrivalSpeed="12.07" duration="45.00" routeLength="494.70" waitingTime="0.00" waitingCount="0" stopTime="0.00" timeLoss="3.55" rerouteNo="0" devices="tripinfo_flow_NB.2 routing_flow_NB.2" vType="default" speedFactor="0.89" vaporized=""/>
    <tripinfo id="flow_SB.1" depart="2.00" departLane="SB_in_0" departPos="5.10" departSpeed="11.54" departDelay="0.70" arrival="50.00" arrivalLane="WB_out_0" arrivalPos="242.80" arrivalSpeed="10.75" duration="48.00" routeLength="494.70" waitingTime="0.00" waitingCount="0" stopTime="0.00" timeLoss="3.77" rerouteNo="0" devices="tripinfo_flow_SB.1 routing_flow_SB.1" vType="default" speedFactor="0.83" vaporized=""/>
    <tripinfo id="flow_NB.3" depart="4.00" departLane="NB_in_0" departPos="5.10" departSpeed="5.95" departDelay="0.25" arrival="50.00" arrivalLane="EB_out_0" arrivalPos="242.80" arrivalSpeed="13.51" duration="46.00" routeLength="494.70" waitingTime="0.00" waitingCount="0" stopTime="0.00" timeLoss="8.91" rerouteNo="0" devices="tripinfo_flow_NB.3 routing_flow_NB.3" vType="default" speedFactor="1.03" vaporized=""/>
    <tripinfo id="flow_NB.4" depart="6.00" departLane="NB_in_0" departPos="5.10" departSpeed="7.55" departDelay="1.00" arrival="51.00" arrivalLane="EB_out_0" arrivalPos="242.80" arrivalSpeed="13.55" duration="45.00" routeLength="494.70" waitingTime="0.00" waitingCount="0" stopTime="0.00" timeLoss="8.28" rerouteNo="0" devices="tripinfo_flow_NB.4 routing_flow_NB.4" vType="default" speedFactor="0.99" vaporized=""/>
    <tripinfo id="flow_SB.2" depart="3.00" departLane="SB_in_0" departPos="5.10" departSpeed="8.81" departDelay="0.39" arrival="52.00" arrivalLane="WB_out_0" arrivalPos="242.80" arrivalSpeed="12.87" duration="49.00" routeLength="494.70" waitingTime="0.00" waitingCount="0" stopTime="0.00" timeLoss="9.42" rerouteNo="0" devices="tripinfo_flow_SB.2 routing_flow_SB.2" vType="default" speedFactor="0.94" vaporized=""/>
    <tripinfo id="flow_SB.3" depart="4.00" departLane="SB_in_0" departPos="5.10" departSpeed="4.80" departDelay="0.09" arrival="53.00" arrivalLane="WB_out_0" arrivalPos="242.80" arrivalSpeed="12.89" duration="49.00" routeLength="494.70" waitingTime="0.00" waitingCount="0" stopTime="0.00" timeLoss="12.56" rerouteNo="0" devices="tripinfo_flow_SB.3 routing_flow_SB.3" vType="default" speedFactor="1.05" vaporized=""/>
    <tripinfo id="flow_NB.5" depart="8.00" departLane="NB_in_0" departPos="5.10" departSpeed="8.36" departDelay="1.75" arrival="53.00" arrivalLane="EB_out_0" arrivalPos="242.80" arrivalSpeed="13.44" duration="45.00" routeLength="494.70" waitingTime="0.00" waitingCount="0" stopTime="0.00" timeLoss="8.53" rerouteNo="0" devices="tripinfo_flow_NB.5 routing_flow_NB.5" vType="default" speedFactor="1.16" vaporized=""/>
    <tripinfo id="flow_SB.4" depart="6.00" departLane="SB_in_0" departPos="5.10" departSpeed="4.83" departDelay="0.78" arrival="55.00" arrivalLane="WB_out_0" arrivalPos="242.80" arrivalSpeed="12.83" duration="49.00" routeLength="494.70" waitingTime="0.00" waitingCount="0" stopTime="0.00" timeLoss="9.97" rerouteNo="0" devices="tripinfo_flow_SB.4 routing_flow_SB.4" vType="default" speedFactor="0.94" vaporized=""/>
    <tripinfo id="flow_SB.5" depart="8.00" departLane="SB_in_0" departPos="5.10" departSpeed="4.11" departDelay="1.48" arrival="57.00" arrivalLane="WB_out_0" arrivalPos="242.80" arrivalSpeed="13.60" duration="49.00" routeLength="494.70" waitingTime="0.00" waitingCount="0" stopTime="0.00" timeLoss="11.95" rerouteNo="0" devices="tripinfo_flow_SB.5 routing_flow_SB.5" vType="default" speedFactor="1.02" vaporized=""/>
    <tripinfo id="flow_NB.6" depart="9.00" departLane="NB_in_0" departPos="5.10" departSpeed="3.05" departDelay="1.50" arrival="58.00" arrivalLane="EB_out_0" arrivalPos="242.80" arrivalSpeed="12.12" duration="49.00" routeLength="494.70" waitingTime="0.00" waitingCount="0" stopTime="0.00" timeLoss="7.43" rerouteNo="0" devices="tripinfo_flow_NB.6 routing_flow_NB.6" vType="default" speedFactor="0.89" vaporized=""/>
    <tripinfo id="flow_NB.7" depart="12.00" departLane="NB_in_0" departPos="5.10" departSpeed="6.16" departDelay="3.25" arrival="60.00" arrivalLane="EB_out_0" arrivalPos="242.80" arrivalSpeed="11.51" duration="48.00" routeLength="494.70" waitingTime="0.00" waitingCount="0" stopTime="0.00" timeLoss="7.84" rerouteNo="0" devices="tripinfo_flow_NB.7 routing_flow_NB.7" vType="default" speedFactor="0.92" vaporized=""/>
    <tripinfo id="flow_NB.8" depart="14.00" departLane="NB_in_0" departPos="5.10" departSpeed="7.00" departDelay="4.00" arrival="61.00" arrivalLane="EB_out_0" arrivalPos="242.80" arrivalSpeed="13.57" duration="47.00" routeLength="494.70" waitingTime="0.00" waitingCount="0" stopTime="0.00" timeLoss="10.88" rerouteNo="0" devices="tripinfo_flow_NB.8 routing_flow_NB.8" vType="default" speedFactor="1.13" vaporized=""/>
    <tripinfo id="flow_SB.6" depart="10.00" departLane="SB_in_0" departPos="5.10" departSpeed="2.41" departDelay="2.18" arrival="62.00" arrivalLane="WB_out_0" arrivalPos="242.80" arrivalSpeed="11.39" duration="52.00" routeLength="494.70" waitingTime="0.00" waitingCount="0" stopTime="0.00" timeLoss="7.95" rerouteNo="0" devices="tripinfo_flow_SB.6 routing_flow_SB.6" vType="default" speedFactor="0.83" vaporized=""/>
    <tripinfo id="flow_SB.7" depart="13.00" departLane="SB_in_0" departPos="5.10" departSpeed="4.56" departDelay="3.87" arrival="64.00" arrivalLane="WB_out_0" arrivalPos="242.80" arrivalSpeed="12.59" duration="51.00" routeLength="494.70" waitingTime="0.00" waitingCount="0" stopTime="0.00" timeLoss="11.30" rerouteNo="0" devices="tripinfo_flow_SB.7 routing_flow_SB.7" vType="default" speedFactor="0.93" vaporized=""/>
    <tripinfo id="flow_WB.0" depart="0.00" departLane="WB_in_0" departPos="5.10" departSpeed="13.89" departDelay="0.00" arrival="68.00" arrivalLane="NB_out_0" arrivalPos="242.80" arrivalSpeed="13.07" duration="68.00" routeLength="494.70" waitingTime="24.00" waitingCount="1" stopTime="0.00" timeLoss="31.02" rerouteNo="0" devices="tripinfo_flow_WB.0 routing_flow_WB.0" vType="default" speedFactor="1.08" vaporized=""/>
    <tripinfo id="flow_WB.1" depart="2.00" departLane="WB_in_0" departPos="5.10" departSpeed="13.89" departDelay="0.97" arrival="70.00" arrivalLane="NB_out_0" arrivalPos="242.80" arrivalSpeed="13.21" duration="68.00" routeLength="494.70" waitingTime="23.00" waitingCount="1" stopTime="0.00" timeLoss="31.41" rerouteNo="0" devices="tripinfo_flow_WB.1 routing_flow_WB.1" vType="default" speedFactor="1.05" vaporized=""/>
    <tripinfo id="flow_WB.2" depart="3.00" departLane="WB_in_0" departPos="5.10" departSpeed="10.91" departDelay="0.93" arrival="73.00" arrivalLane="NB_out_0" arrivalPos="242.80" arrivalSpeed="13.13" duration="70.00" routeLength="494.70" waitingTime="22.00" waitingCount="1" stopTime="0.00" timeLoss="32.81" rerouteNo="0" devices="tripinfo_flow_WB.2 routing_flow_WB.2" vType="default" speedFactor="1.09" vaporized=""/>
    <tripinfo id="flow_WB.3" depart="4.00" departLane="WB_in_0" departPos="5.10" departSpeed="7.08" departDelay="0.90" arrival="75.00" arrivalLane="NB_out_0" arrivalPos="242.80" arrivalSpeed="13.80" duration="71.00" routeLength="494.70" waitingTime="21.00" waitingCount="1" stopTime="0.00" timeLoss="34.00" rerouteNo="0" devices="tripinfo_flow_WB.3 routing_flow_WB.3" vType="default" speedFactor="1.12" vaporized=""/>
    <tripinfo id="flow_WB.4" depart="6.00" departLane="WB_in_0" departPos="5.10" departSpeed="9.17" departDelay="1.86" arrival="80.00" arrivalLane="NB_out_0" arrivalPos="242.80" arrivalSpeed="11.98" duration="74.00" routeLength="494.70" waitingTime="21.00" waitingCount="1" stopTime="0.00" timeLoss="32.14" rerouteNo="0" devices="tripinfo_flow_WB.4 routing_flow_WB.4" vType="default" speedFactor="0.88" vaporized=""/>
    <tripinfo id="flow_WB.5" depart="7.00" departLane="WB_in_0" departPos="5.10" departSpeed="4.91" departDelay="1.83" arrival="82.00" arrivalLane="NB_out_0" arrivalPos="242.80" arrivalSpeed="11.83" duration="75.00" routeLength="494.70" waitingTime="21.00" waitingCount="1" stopTime="0.00" timeLoss="35.81" rerouteNo="0" devices="tripinfo_flow_WB.5 routing_flow_WB.5" vType="default" speedFactor="0.94" vaporized=""/>
    <tripinfo id="flow_WB.6" depart="9.00" departLane="WB_in_0" departPos="5.10" departSpeed="4.32" departDelay="2.80" arrival="84.00" arrivalLane="NB_out_0" arrivalPos="242.80" arrivalSpeed="13.51" duration="75.00" routeLength="494.70" waitingTime="21.00" waitingCount="1" stopTime="0.00" timeLoss="36.88" rerouteNo="0" devices="tripinfo_flow_WB.6 routing_flow_WB.6" vType="default" speedFactor="0.97" vaporized=""/>
    <tripinfo id="flow_WB.7" depart="11.00" departLane="WB_in_0" departPos="5.10" departSpeed="1.67" departDelay="3.76" arrival="88.00" arrivalLane="NB_out_0" arrivalPos="242.80" arrivalSpeed="11.30" duration="77.00" routeLength="494.70" waitingTime="18.00" waitingCount="1" stopTime="0.00" timeLoss="34.61" rerouteNo="0" devices="tripinfo_flow_WB.7 routing_flow_WB.7" vType="default" speedFactor="0.87" vaporized=""/>
    <tripinfo id="flow_WB.8" depart="14.00" departLane="WB_in_0" departPos="5.10" departSpeed="3.05" departDelay="5.73" arrival="89.00" arrivalLane="NB_out_0" arrivalPos="242.80" arrivalSpeed="12.33" duration="75.00" routeLength="494.70" waitingTime="18.00" waitingCount="1" stopTime="0.00" timeLoss="36.58" rerouteNo="0" devices="tripinfo_flow_WB.8 routing_flow_WB.8" vType="default" speedFactor="0.95" vaporized=""/>
    <tripinfo id="flow_WB.9" depart="17.00" departLane="WB_in_0" departPos="5.10" departSpeed="4.97" departDelay="7.69" arrival="91.00" arrivalLane="NB_out_0" arrivalPos="242.80" arrivalSpeed="13.18" duration="74.00" routeLength="494.70" waitingTime="17.00" waitingCount="1" stopTime="0.00" timeLoss="37.38" rerouteNo="0" devices="tripinfo_flow_WB.9 routing_flow_WB.9" vType="default" speedFactor="1.15" vaporized=""/>
    <tripinfo id="flow_WB.10" depart="19.00" departLane="WB_in_0" departPos="5.10" departSpeed="4.29" departDelay="8.66" arrival="93.00" arrivalLane="NB_out_0" arrivalPos="242.80" arrivalSpeed="12.74" duration="74.00" routeLength="494.70" waitingTime="17.00" waitingCount="1" stopTime="0.00" timeLoss="37.37" rerouteNo="0" devices="tripinfo_flow_WB.10 routing_flow_WB.10" vType="default" speedFactor="1.17" vaporized=""/>
    <tripinfo id="flow_WB.11" depart="21.00" departLane="WB_in_0" departPos="5.10" departSpeed="4.36" departDelay="9.63" arrival="94.00" arrivalLane="NB_out_0" arrivalPos="242.80" arrivalSpeed="13.57" duration="73.00" routeLength="494.70" waitingTime="17.00" waitingCount="1" stopTime="0.00" timeLoss="37.01" rerouteNo="0" devices="tripinfo_flow_WB.11 routing_flow_WB.11" vType="default" speedFactor="1.18" vaporized=""/>
    <tripinfo id="flow_WB.12" depart="23.00" departLane="WB_in_0" departPos="5.10" departSpeed="3.22" departDelay="10.59" arrival="98.00" arrivalLane="NB_out_0" arrivalPos="242.80" arrivalSpeed="12.37" duration="75.00" routeLength="494.70" waitingTime="18.00" waitingCount="1" stopTime="0.00" timeLoss="34.17" rerouteNo="0" devices="tripinfo_flow_WB.12 routing_flow_WB.12" vType="default" speedFactor="0.90" vaporized=""/>
    <tripinfo id="flow_WB.13" depart="26.00" departLane="WB_in_0" departPos="5.10" departSpeed="6.21" departDelay="12.56" arrival="100.00" arrivalLane="NB_out_0" arrivalPos="242.80" arrivalSpeed="13.35" duration="74.00" routeLength="494.70" waitingTime="17.00" waitingCount="1" stopTime="0.00" timeLoss="36.91" rerouteNo="0" devices="tripinfo_flow_WB.13 routing_flow_WB.13" vType="default" speedFactor="1.04" vaporized=""/>
    <tripinfo id="flow_WB.14" depart="28.00" departLane="WB_in_0" departPos="5.10" departSpeed="7.45" departDelay="13.52" arrival="101.00" arrivalLane="NB_out_0" arrivalPos="242.80" arrivalSpeed="13.70" duration="73.00" routeLength="494.70" waitingTime="16.00" waitingCount="1" stopTime="0.00" timeLoss="36.35" rerouteNo="0" devices="tripinfo_flow_WB.14 routing_flow_WB.14" vType="default" speedFactor="1.00" vaporized=""/>
    <tripinfo id="flow_WB.15" depart="30.00" departLane="WB_in_0" departPos="5.10" departSpeed="8.86" departDelay="14.49" arrival="105.00" arrivalLane="NB_out_0" arrivalPos="242.80" arrivalSpeed="11.33" duration="75.00" routeLength="494.70" waitingTime="16.00" waitingCount="1" stopTime="0.00" timeLoss="33.52" rerouteNo="0" devices="tripinfo_flow_WB.15 routing_flow_WB.15" vType="default" speedFactor="0.88" vaporized=""/>
    <tripinfo id="flow_SB.8" depart="15.00" departLane="SB_in_0" departPos="5.10" departSpeed="2.17" departDelay="4.57" arrival="111.00" arrivalLane="WB_out_0" arrivalPos="242.80" arrivalSpeed="12.71" duration="96.00" routeLength="494.70" waitingTime="45.00" waitingCount="1" stopTime="0.00" timeLoss="59.31" rerouteNo="0" devices="tripinfo_flow_SB.8 routing_flow_SB.8" vType="default" speedFactor="1.01" vaporized=""/>
    <tripinfo id="flow_NB.9" depart="16.00" departLane="NB_in_0" departPos="5.10" departSpeed="7.81" departDelay="4.75" arrival="112.00" arrivalLane="EB_out_0" arrivalPos="242.80" arrivalSpeed="12.98" duration="96.00" routeLength="494.70" waitingTime="46.00" waitingCount="1" stopTime="0.00" timeLoss="58.85" rerouteNo="0" devices="tripinfo_flow_NB.9 routing_flow_NB.9" vType="default" speedFactor="0.99" vaporized=""/>
    <tripinfo id="flow_SB.9" depart="18.00" departLane="SB_in_0" departPos="5.10" departSpeed="5.37" departDelay="6.26" arrival="113.00" arrivalLane="WB_out_0" arrivalPos="242.80" arrivalSpeed="13.31" duration="95.00" routeLength="494.70" waitingTime="44.00" waitingCount="1" stopTime="0.00" timeLoss="58.39" rerouteNo="0" devices="tripinfo_flow_SB.9 routing_flow_SB.9" vType="default" speedFactor="1.02" vaporized=""/>
    <tripinfo id="flow_NB.10" depart="18.00" departLane="NB_in_0" departPos="5.10" departSpeed="7.94" departDelay="5.50" arrival="114.00" arrivalLane="EB_out_0" arrivalPos="242.80" arrivalSpeed="12.90" duration="96.00" routeLength="494.70" waitingTime="45.00" waitingCount="1" stopTime="0.00" timeLoss="59.08" rerouteNo="0" devices="tripinfo_flow_NB.10 routing_flow_NB.10" vType="default" speedFactor="1.10" vaporized=""/>
    <tripinfo id="flow_NB.11" depart="19.00" departLane="NB_in_0" departPos="5.10" departSpeed="3.21" departDelay="5.25" arrival="116.00" arrivalLane="EB_out_0" arrivalPos="242.80" arrivalSpeed="13.68" duration="97.00" routeLength="494.70" waitingTime="44.00" waitingCount="1" stopTime="0.00" timeLoss="60.32" rerouteNo="0" devices="tripinfo_flow_NB.11 routing_flow_NB.11" vType="default" speedFactor="1.03" vaporized=""/>
    <tripinfo id="flow_SB.10" depart="20.00" departLane="SB_in_0" departPos="5.10" departSpeed="5.26" departDelay="6.96" arrival="117.00" arrivalLane="WB_out_0" arrivalPos="242.80" arrivalSpeed="13.15" duration="97.00" routeLength="494.70" waitingTime="42.00" waitingCount="1" stopTime="0.00" timeLoss="57.68" rerouteNo="0" devices="tripinfo_flow_SB.10 routing_flow_SB.10" vType="default" speedFactor="0.96" vaporized=""/>
    <tripinfo id="flow_NB.12" depart="22.00" departLane="NB_in_0" departPos="5.10" departSpeed="5.20" departDelay="7.00" arrival="118.00" arrivalLane="EB_out_0" arrivalPos="242.80" arrivalSpeed="12.83" duration="96.00" routeLength="494.70" waitingTime="42.00" waitingCount="1" stopTime="0.00" timeLoss="59.54" rerouteNo="0" devices="tripinfo_flow_NB.12 routing_flow_NB.12" vType="default" speedFactor="1.04" vaporized=""/>
    <tripinfo id="flow_SB.11" depart="22.00" departLane="SB_in_0" departPos="5.10" departSpeed="5.47" departDelay="7.66" arrival="118.00" arrivalLane="WB_out_0" arrivalPos="242.80" arrivalSpeed="13.56" duration="96.00" routeLength="494.70" waitingTime="42.00" waitingCount="1" stopTime="0.00" timeLoss="59.55" rerouteNo="0" devices="tripinfo_flow_SB.11 routing_flow_SB.11" vType="default" speedFactor="1.09" vaporized=""/>
    <tripinfo id="flow_SB.12" depart="24.00" departLane="SB_in_0" departPos="5.10" departSpeed="5.02" departDelay="8.35" arrival="123.00" arrivalLane="WB_out_0" arrivalPos="242.80" arrivalSpeed="12.50" duration="99.00" routeLength="494.70" waitingTime="42.00" waitingCount="1" stopTime="0.00" timeLoss="57.95" rerouteNo="0" devices="tripinfo_flow_SB.12 routing_flow_SB.12" vType="default" speedFactor="0.90" vaporized=""/>
    <tripinfo id="flow_NB.13" depart="24.00" departLane="NB_in_0" departPos="5.10" departSpeed="5.13" departDelay="7.75" arrival="124.00" arrivalLane="EB_out_0" arrivalPos="242.80" arrivalSpeed="10.62" duration="100.00" routeLength="494.70" waitingTime="42.00" waitingCount="1" stopTime="0.00" timeLoss="57.25" rerouteNo="0" devices="tripinfo_flow_NB.13 routing_flow_NB.13" vType="default" speedFactor="0.85" vaporized=""/>
    <tripinfo id="flow_NB.14" depart="26.00" departLane="NB_in_0" departPos="5.10" departSpeed="3.84" departDelay="8.50" arrival="126.00" arrivalLane="EB_out_0" arrivalPos="242.80" arrivalSpeed="13.41" duration="100.00" routeLength="494.70" waitingTime="43.00" waitingCount="1" stopTime="0.00" timeLoss="63.25" rerouteNo="0" devices="tripinfo_flow_NB.14 routing_flow_NB.14" vType="default" speedFactor="1.10" vaporized=""/>
    <tripinfo id="flow_SB.13" depart="26.00" departLane="SB_in_0" departPos="5.10" departSpeed="4.64" departDelay="9.05" arrival="127.00" arrivalLane="WB_out_0" arrivalPos="242.80" arrivalSpeed="11.72" duration="101.00" routeLength="494.70" waitingTime="42.00" waitingCount="1" stopTime="0.00" timeLoss="57.67" rerouteNo="0" devices="tripinfo_flow_SB.13 routing_flow_SB.13" vType="default" speedFactor="0.85" vaporized=""/>
    <tripinfo id="flow_NB.15" depart="28.00" departLane="NB_in_0" departPos="5.10" departSpeed="3.50" departDelay="9.25" arrival="128.00" arrivalLane="EB_out_0" arrivalPos="242.80" arrivalSpeed="13.58" duration="100.00" routeLength="494.70" waitingTime="41.00" waitingCount="1" stopTime="0.00" timeLoss="62.48" rerouteNo="0" devices="tripinfo_flow_NB.15 routing_flow_NB.15" vType="default" speedFactor="1.00" vaporized=""/>
    <tripinfo id="flow_SB.14" depart="28.00" departLane="SB_in_0" departPos="5.10" departSpeed="5.05" departDelay="9.74" arrival="128.00" arrivalLane="WB_out_0" arrivalPos="242.80" arrivalSpeed="12.08" duration="100.00" routeLength="494.70" waitingTime="41.00" waitingCount="1" stopTime="0.00" timeLoss="59.21" rerouteNo="0" devices="tripinfo_flow_SB.14 routing_flow_SB.14" vType="default" speedFactor="0.90" vaporized=""/>
    <tripinfo id="flow_NB.16" depart="31.00" departLane="NB_in_0" departPos="5.10" departSpeed="6.68" departDelay="11.00" arrival="129.00" arrivalLane="EB_out_0" arrivalPos="242.80" arrivalSpeed="12.63" duration="98.00" routeLength="494.70" waitingTime="40.00" waitingCount="1" stopTime="0.00" timeLoss="60.30" rerouteNo="0" devices="tripinfo_flow_NB.16 routing_flow_NB.16" vType="default" speedFactor="0.97" vaporized=""/>
    <tripinfo id="flow_SB.15" depart="30.00" departLane="SB_in_0" departPos="5.10" departSpeed="5.83" departDelay="10.44" arrival="130.00" arrivalLane="WB_out_0" arrivalPos="242.80" arrivalSpeed="13.45" duration="100.00" routeLength="494.70" waitingTime="41.00" waitingCount="1" stopTime="0.00" timeLoss="63.34" rerouteNo="0" devices="tripinfo_flow_SB.15 routing_flow_SB.15" vType="default" speedFactor="1.08" vaporized=""/>
    <tripinfo id="flow_SB.16" depart="32.00" departLane="SB_in_0" departPos="5.10" departSpeed="5.72" departDelay="11.14" arrival="132.00" arrivalLane="WB_out_0" arrivalPos="242.80" arrivalSpeed="12.72" duration="100.00" routeLength="494.70" waitingTime="40.00" waitingCount="2" stopTime="0.00" timeLoss="63.02" rerouteNo="0" devices="tripinfo_flow_SB.16 routing_flow_SB.16" vType="default" speedFactor="1.02" vaporized=""/>
    <tripinfo id="flow_NB.17" depart="33.00" departLane="NB_in_0" departPos="5.10" departSpeed="7.79" departDelay="11.75" arrival="133.00" arrivalLane="EB_out_0" arrivalPos="242.80" arrivalSpeed="11.56" duration="100.00" routeLength="494.70" waitingTime="40.00" waitingCount="1" stopTime="0.00" timeLoss="58.20" rerouteNo="0" devices="tripinfo_flow_NB.17 routing_flow_NB.17" vType="default" speedFactor="0.88" vaporized=""/>
    <tripinfo id="flow_SB.17" depart="34.00" departLane="SB_in_0" departPos="5.10" departSpeed="5.83" departDelay="11.83" arrival="133.00" arrivalLane="WB_out_0" arrivalPos="242.80" arrivalSpeed="13.34" duration="99.00" routeLength="494.70" waitingTime="39.00" waitingCount="1" stopTime="0.00" timeLoss="62.69" rerouteNo="0" devices="tripinfo_flow_SB.17 routing_flow_SB.17" vType="default" speedFactor="1.04" vaporized=""/>
    <tripinfo id="flow_NB.18" depart="35.00" departLane="NB_in_0" departPos="5.10" departSpeed="7.47" departDelay="12.50" arrival="135.00" arrivalLane="EB_out_0" arrivalPos="242.80" arrivalSpeed="12.01" duration="100.00" routeLength="494.70" waitingTime="41.00" waitingCount="1" stopTime="0.00" timeLoss="59.00" rerouteNo="0" devices="tripinfo_flow_NB.18 routing_flow_NB.18" vType="default" speedFactor="0.91" vaporized=""/>
    <tripinfo id="flow_NB.19" depart="37.00" departLane="NB_in_0" departPos="5.10" departSpeed="7.99" departDelay="13.25" arrival="136.00" arrivalLane="EB_out_0" arrivalPos="242.80" arrivalSpeed="13.01" duration="99.00" routeLength="494.70" waitingTime="39.00" waitingCount="1" stopTime="0.00" timeLoss="62.52" rerouteNo="0" devices="tripinfo_flow_NB.19 routing_flow_NB.19" vType="default" speedFactor="1.02" vaporized=""/>
    <tripinfo id="flow_SB.18" depart="36.00" departLane="SB_in_0" departPos="5.10" departSpeed="6.05" departDelay="12.53" arrival="136.00" arrivalLane="WB_out_0" arrivalPos="242.80" arrivalSpeed="13.20" duration="100.00" routeLength="494.70" waitingTime="40.00" waitingCount="1" stopTime="0.00" timeLoss="61.68" rerouteNo="0" devices="tripinfo_flow_SB.18 routing_flow_SB.18" vType="default" speedFactor="0.97" vaporized=""/>
    <tripinfo id="flow_SB.19" depart="38.00" departLane="SB_in_0" departPos="5.10" departSpeed="6.65" departDelay="13.22" arrival="137.00" arrivalLane="WB_out_0" arrivalPos="242.80" arrivalSpeed="13.25" duration="99.00" routeLength="494.70" waitingTime="40.00" waitingCount="1" stopTime="0.00" timeLoss="61.89" rerouteNo="0" devices="tripinfo_flow_SB.19 routing_flow_SB.19" vType="default" speedFactor="0.98" vaporized=""/>
    <tripinfo id="flow_NB.20" depart="38.00" departLane="NB_in_0" departPos="5.10" departSpeed="3.45" departDelay="13.00" arrival="138.00" arrivalLane="EB_out_0" arrivalPos="242.80" arrivalSpeed="12.87" duration="100.00" routeLength="494.70" waitingTime="40.00" waitingCount="1" stopTime="0.00" timeLoss="61.55" rerouteNo="0" devices="tripinfo_flow_NB.20 routing_flow_NB.20" vType="default" speedFactor="0.96" vaporized=""/>
    <tripinfo id="flow_SB.20" depart="40.00" departLane="SB_in_0" departPos="5.10" departSpeed="8.40" departDelay="13.92" arrival="139.00" arrivalLane="WB_out_0" arrivalPos="242.80" arrivalSpeed="13.17" duration="99.00" routeLength="494.70" waitingTime="40.00" waitingCount="1" stopTime="0.00" timeLoss="62.30" rerouteNo="0" devices="tripinfo_flow_SB.20 routing_flow_SB.20" vType="default" speedFactor="1.03" vaporized=""/>
    <tripinfo id="flow_NB.21" depart="41.00" departLane="NB_in_0" departPos="5.10" departSpeed="5.71" departDelay="14.75" arrival="140.00" arrivalLane="EB_out_0" arrivalPos="242.80" arrivalSpeed="13.40" duration="99.00" routeLength="494.70" waitingTime="39.00" waitingCount="1" stopTime="0.00" timeLoss="62.13" rerouteNo="0" devices="tripinfo_flow_NB.21 routing_flow_NB.21" vType="default" speedFactor="1.09" vaporized=""/>
    <tripinfo id="flow_NB.22" depart="43.00" departLane="NB_in_0" departPos="5.10" departSpeed="5.84" departDelay="15.50" arrival="142.00" arrivalLane="EB_out_0" arrivalPos="242.80" arrivalSpeed="13.77" duration="99.00" routeLength="494.70" waitingTime="40.00" waitingCount="1" stopTime="0.00" timeLoss="62.13" rerouteNo="0" devices="tripinfo_flow_NB.22 routing_flow_NB.22" vType="default" speedFactor="1.02" vaporized=""/>
    <tripinfo id="flow_SB.21" depart="42.00" departLane="SB_in_0" departPos="5.10" departSpeed="9.90" departDelay="14.62" arrival="142.00" arrivalLane="WB_out_0" arrivalPos="242.80" arrivalSpeed="12.90" duration="100.00" routeLength="494.70" waitingTime="40.00" waitingCount="1" stopTime="0.00" timeLoss="61.77" rerouteNo="0" devices="tripinfo_flow_SB.21 routing_flow_SB.21" vType="default" speedFactor="0.97" vaporized=""/>
    <tripinfo id="flow_NB.23" depart="45.00" departLane="NB_in_0" departPos="5.10" departSpeed="5.08" departDelay="16.25" arrival="144.00" arrivalLane="EB_out_0" arrivalPos="242.80" arrivalSpeed="13.66" duration="99.00" routeLength="494.70" waitingTime="39.00" waitingCount="1" stopTime="0.00" timeLoss="61.66" rerouteNo="0" devices="tripinfo_flow_NB.23 routing_flow_NB.23" vType="default" speedFactor="1.00" vaporized=""/>
    <tripinfo id="flow_SB.22" depart="43.00" departLane="SB_in_0" departPos="5.10" departSpeed="5.06" departDelay="14.31" arrival="144.00" arrivalLane="WB_out_0" arrivalPos="242.80" arrivalSpeed="13.85" duration="101.00" routeLength="494.70" waitingTime="39.00" waitingCount="1" stopTime="0.00" timeLoss="63.78" rerouteNo="0" devices="tripinfo_flow_SB.22 routing_flow_SB.22" vType="default" speedFactor="1.04" vaporized=""/>
    <tripinfo id="flow_NB.24" depart="47.00" departLane="NB_in_0" departPos="5.10" departSpeed="5.89" departDelay="17.00" arrival="146.00" arrivalLane="EB_out_0" arrivalPos="242.80" arrivalSpeed="13.08" duration="99.00" routeLength="494.70" waitingTime="38.00" waitingCount="1" stopTime="0.00" timeLoss="62.19" rerouteNo="0" devices="tripinfo_flow_NB.24 routing_flow_NB.24" vType="default" speedFactor="1.02" vaporized=""/>
    <tripinfo id="flow_SB.23" depart="45.00" departLane="SB_in_0" departPos="5.10" departSpeed="5.38" departDelay="15.01" arrival="146.00" arrivalLane="WB_out_0" arrivalPos="242.80" arrivalSpeed="12.66" duration="101.00" routeLength="494.70" waitingTime="39.00" waitingCount="1" stopTime="0.00" timeLoss="64.30" rerouteNo="0" devices="tripinfo_flow_SB.23 routing_flow_SB.23" vType="default" speedFactor="1.02" vaporized=""/>
    <tripinfo id="flow_SB.24" depart="47.00" departLane="SB_in_0" departPos="5.10" departSpeed="5.28" departDelay="15.70" arrival="148.00" arrivalLane="WB_out_0" arrivalPos="242.80" arrivalSpeed="13.87" duration="101.00" routeLength="494.70" waitingTime="39.00" waitingCount="1" stopTime="0.00" timeLoss="64.34" rerouteNo="0" devices="tripinfo_flow_SB.24 routing_flow_SB.24" vType="default" speedFactor="1.09" vaporized=""/>
    <tripinfo id="flow_NB.25" depart="49.00" departLane="NB_in_0" departPos="5.10" departSpeed="6.02" departDelay="17.75" arrival="150.00" arrivalLane="EB_out_0" arrivalPos="242.80" arrivalSpeed="12.12" duration="101.00" routeLength="494.70" waitingTime="39.00" waitingCount="1" stopTime="0.00" timeLoss="61.10" rerouteNo="0" devices="tripinfo_flow_NB.25 routing_flow_NB.25" vType="default" speedFactor="0.92" vaporized=""/>
    <tripinfo id="flow_NB.26" depart="51.00" departLane="NB_in_0" departPos="5.10" departSpeed="5.92" departDelay="18.50" arrival="152.00" arrivalLane="EB_out_0" arrivalPos="242.80" arrivalSpeed="13.22" duration="101.00" routeLength="494.70" waitingTime="38.00" waitingCount="1" stopTime="0.00" timeLoss="63.86" rerouteNo="0" devices="tripinfo_flow_NB.26 routing_flow_NB.26" vType="default" speedFactor="1.01" vaporized=""/>