<?xml version="1.0" encoding="UTF-8"?>

<!-- generated on 2025-11-10 11:41:17 by Eclipse SUMO sumo Version 1.24.0
<sumoConfiguration xmlns:xsi="http://www.w3.org/2001/XMLSchema-instance" xsi:noNamespaceSchemaLocation="http://sumo.dlr.de/xsd/sumoConfiguration.xsd">

    <input>
        <net-file value="sumo_network.net.xml"/>
        <route-files value="routes.rou.xml"/>
        <additional-files value="webster_traffic_lights.add.xml"/>
    </input>

    <output>
        <summary-output value="sumo_output_Webster.xml"/>
        <tripinfo-output value="tripinfo_Webster.xml"/>
    </output>

    <time>
        <begin value="0"/>
        <end value="3600"/>
    </time>

    <report>
        <no-warnings value="true"/>
        <no-step-log value="true"/>
    </report>

</sumoConfiguration>
-->

<tripinfos xmlns:xsi="http://www.w3.org/2001/XMLSchema-instance" xsi:noNamespaceSchemaLocation="http://sumo.dlr.de/xsd/tripinfo_file.xsd">
    <tripinfo id="flow_NB.0" depart="0.00" departLane="NB_in_0" departPos="5.10" departSpeed="13.89" departDelay="0.00" arrival="39.00" arrivalLane="WB_out_0" arrivalPos="242.80" arrivalSpeed="13.38" duration="39.00" routeLength="489.53" waitingTime="0.00" waitingCount="0" stopTime="0.00" timeLoss="3.02" rerouteNo="0" devices="tripinfo_flow_NB.0 routing_flow_NB.0" vType="default" speedFactor="1.06" vaporized=""/>
    <tripinfo id="flow_SB.0" depart="0.00" departLane="SB_in_0" departPos="5.10" departSpeed="13.03" departDelay="0.00" arrival="40.00" arrivalLane="SB_out_0" arrivalPos="242.80" arrivalSpeed="12.76" duration="40.00" routeLength="494.90" waitingTime="0.00" waitingCount="0" stopTime="0.00" timeLoss="2.03" rerouteNo="0" devices="tripinfo_flow_SB.0 routing_flow_SB.0" vType="default" speedFactor="0.94" vaporized=""/>
    <tripinfo id="flow_NB.1" depart="19.00" departLane="NB_in_0" departPos="5.10" departSpeed="13.89" departDelay="0.44" arrival="59.00" arrivalLane="WB_out_0" arrivalPos="242.80" arrivalSpeed="13.79" duration="40.00" routeLength="489.53" waitingTime="0.00" waitingCount="0" stopTime="0.00" timeLoss="3.65" rerouteNo="0" devices="tripinfo_flow_NB.1 routing_flow_NB.1" vType="default" speedFactor="1.03" vaporized=""/>
    <tripinfo id="flow_WB.0" depart="0.00" departLane="WB_in_0" departPos="5.10" departSpeed="13.89" departDelay="0.00" arrival="66.00" arrivalLane="NB_out_0" arrivalPos="246.00" arrivalSpeed="13.18" duration="66.00" routeLength="495.43" waitingTime="22.00" waitingCount="1" stopTime="0.00" timeLoss="29.11" rerouteNo="0" devices="tripinfo_flow_WB.0 routing_flow_WB.0" vType="default" speedFactor="1.01" vaporized=""/>
    <tripinfo id="flow_WB.1" depart="18.00" departLane="WB_in_0" departPos="5.10" departSpeed="13.89" departDelay="0.44" arrival="68.00" arrivalLane="NB_out_0" arrivalPos="246.00" arrivalSpeed="13.76" duration="50.00" routeLength="495.43" waitingTime="7.00" waitingCount="1" stopTime="0.00" timeLoss="13.08" rerouteNo="0" devices="tripinfo_flow_WB.1 routing_flow_WB.1" vType="default" speedFactor="1.08" vaporized=""/>
    <tripinfo id="flow_WB.2" depart="36.00" departLane="WB_in_0" departPos="5.10" departSpeed="13.89" departDelay="0.88" arrival="76.00" arrivalLane="NB_out_0" arrivalPos="246.00" arrivalSpeed="12.73" duration="40.00" routeLength="495.43" waitingTime="0.00" waitingCount="0" stopTime="0.00" timeLoss="3.05" rerouteNo="0" devices="tripinfo_flow_WB.2 routing_flow_WB.2" vType="default" speedFactor="1.05" vaporized=""/>
    <tripinfo id="flow_NB.2" depart="38.00" departLane="NB_in_0" departPos="5.10" departSpeed="12.31" departDelay="0.89" arrival="85.00" arrivalLane="WB_out_0" arrivalPos="242.80" arrivalSpeed="11.82" duration="47.00" routeLength="489.53" waitingTime="0.00" waitingCount="0" stopTime="0.00" timeLoss="6.63" rerouteNo="0" devices="tripinfo_flow_NB.2 routing_flow_NB.2" vType="default" speedFactor="0.89" vaporized=""/>
    <tripinfo id="flow_SB.1" depart="23.00" departLane="SB_in_0" departPos="5.10" departSpeed="11.54" departDelay="0.64" arrival="87.00" arrivalLane="SB_out_0" arrivalPos="242.80" arrivalSpeed="10.56" duration="64.00" routeLength="494.90" waitingTime="15.00" waitingCount="1" stopTime="0.00" timeLoss="20.92" rerouteNo="0" devices="tripinfo_flow_SB.1 routing_flow_SB.1" vType="default" speedFactor="0.83" vaporized=""/>
    <tripinfo id="flow_SB.2" depart="45.00" departLane="SB_in_0" departPos="5.10" departSpeed="13.03" departDelay="0.28" arrival="89.00" arrivalLane="SB_out_0" arrivalPos="242.80" arrivalSpeed="13.02" duration="44.00" routeLength="494.90" waitingTime="0.00" waitingCount="0" stopTime="0.00" timeLoss="5.37" rerouteNo="0" devices="tripinfo_flow_SB.2 routing_flow_SB.2" vType="default" speedFactor="0.94" vaporized=""/>
    <tripinfo id="flow_NB.3" depart="56.00" departLane="NB_in_0" departPos="5.10" departSpeed="13.89" departDelay="0.33" arrival="96.00" arrivalLane="WB_out_0" arrivalPos="242.80" arrivalSpeed="13.47" duration="40.00" routeLength="489.53" waitingTime="0.00" waitingCount="0" stopTime="0.00" timeLoss="3.61" rerouteNo="0" devices="tripinfo_flow_NB.3 routing_flow_NB.3" vType="default" speedFactor="1.09" vaporized=""/>
    <tripinfo id="flow_SB.3" depart="68.00" departLane="SB_in_0" departPos="5.10" departSpeed="13.89" departDelay="0.92" arrival="106.00" arrivalLane="SB_out_0" arrivalPos="242.80" arrivalSpeed="13.01" duration="38.00" routeLength="494.90" waitingTime="0.00" waitingCount="0" stopTime="0.00" timeLoss="1.86" rerouteNo="0" devices="tripinfo_flow_SB.3 routing_flow_SB.3" vType="default" speedFactor="1.03" vaporized=""/>
    <tripinfo id="flow_NB.4" depart="75.00" departLane="NB_in_0" departPos="5.10" departSpeed="13.89" departDelay="0.77" arrival="114.00" arrivalLane="WB_out_0" arrivalPos="242.80" arrivalSpeed="13.16" duration="39.00" routeLength="489.53" waitingTime="0.00" waitingCount="0" stopTime="0.00" timeLoss="2.93" rerouteNo="0" devices="tripinfo_flow_NB.4 routing_flow_NB.4" vType="default" speedFactor="1.12" vaporized=""/>
    <tripinfo id="flow_WB.3" depart="53.00" departLane="WB_in_0" departPos="5.10" departSpeed="11.90" departDelay="0.32" arrival="131.00" arrivalLane="NB_out_0" arrivalPos="246.00" arrivalSpeed="10.75" duration="78.00" routeLength="495.43" waitingTime="27.00" waitingCount="1" stopTime="0.00" timeLoss="35.49" rerouteNo="0" devices="tripinfo_flow_WB.3 routing_flow_WB.3" vType="default" speedFactor="0.86" vaporized=""/>
    <tripinfo id="flow_WB.4" depart="71.00" departLane="WB_in_0" departPos="5.10" departSpeed="13.89" departDelay="0.76" arrival="133.00" arrivalLane="NB_out_0" arrivalPos="246.00" arrivalSpeed="12.86" duration="62.00" routeLength="495.43" waitingTime="16.00" waitingCount="1" stopTime="0.00" timeLoss="25.22" rerouteNo="0" devices="tripinfo_flow_WB.4 routing_flow_WB.4" vType="default" speedFactor="1.05" vaporized=""/>
    <tripinfo id="flow_WB.5" depart="88.00" departLane="WB_in_0" departPos="5.10" departSpeed="13.77" departDelay="0.20" arrival="135.00" arrivalLane="NB_out_0" arrivalPos="246.00" arrivalSpeed="12.56" duration="47.00" routeLength="495.43" waitingTime="0.00" waitingCount="0" stopTime="0.00" timeLoss="9.84" rerouteNo="0" devices="tripinfo_flow_WB.5 routing_flow_WB.5" vType="default" speedFactor="0.99" vaporized=""/>
    <tripinfo id="flow_SB.4" depart="90.00" departLane="SB_in_0" departPos="5.10" departSpeed="12.87" departDelay="0.56" arrival="147.00" arrivalLane="SB_out_0" arrivalPos="242.80" arrivalSpeed="12.46" duration="57.00" routeLength="494.90" waitingTime="12.00" waitingCount="1" stopTime="0.00" timeLoss="18.35" rerouteNo="0" devices="tripinfo_flow_SB.4 routing_flow_SB.4" vType="default" speedFactor="0.93" vaporized=""/>
    <tripinfo id="flow_NB.5" depart="93.00" departLane="NB_in_0" departPos="5.10" departSpeed="12.20" departDelay="0.22" arrival="149.00" arrivalLane="WB_out_0" arrivalPos="242.80" arrivalSpeed="11.71" duration="56.00" routeLength="489.53" waitingTime="6.00" waitingCount="1" stopTime="0.00" timeLoss="14.88" rerouteNo="0" devices="tripinfo_flow_NB.5 routing_flow_NB.5" vType="default" speedFactor="0.88" vaporized=""/>
    <tripinfo id="flow_SB.5" depart="112.00" departLane="SB_in_0" departPos="5.10" departSpeed="13.89" departDelay="0.20" arrival="150.00" arrivalLane="SB_out_0" arrivalPos="242.80" arrivalSpeed="12.59" duration="38.00" routeLength="494.90" waitingTime="0.00" waitingCount="0" stopTime="0.00" timeLoss="1.81" rerouteNo="0" devices="tripinfo_flow_SB.5 routing_flow_SB.5" vType="default" speedFactor="1.16" vaporized=""/>
    <tripinfo id="flow_NB.6" depart="112.00" departLane="NB_in_0" departPos="5.10" departSpeed="13.00" departDelay="0.66" arrival="154.00" arrivalLane="WB_out_0" arrivalPos="242.80" arrivalSpeed="11.88" duration="42.00" routeLength="489.53" waitingTime="0.00" waitingCount="0" stopTime="0.00" timeLoss="2.95" rerouteNo="0" devices="tripinfo_flow_NB.6 routing_flow_NB.6" vType="default" speedFactor="0.94" vaporized=""/>
    <tripinfo id="flow_NB.7" depart="130.00" departLane="NB_in_0" departPos="5.10" departSpeed="13.89" departDelay="0.10" arrival="169.00" arrivalLane="WB_out_0" arrivalPos="242.80" arrivalSpeed="13.06" duration="39.00" routeLength="489.53" waitingTime="0.00" waitingCount="0" stopTime="0.00" timeLoss="3.28" rerouteNo="0" devices="tripinfo_flow_NB.7 routing_flow_NB.7" vType="default" speedFactor="1.01" vaporized=""/>
    <tripinfo id="flow_SB.6" depart="135.00" departLane="SB_in_0" departPos="5.10" departSpeed="13.54" departDelay="0.84" arrival="174.00" arrivalLane="SB_out_0" arrivalPos="242.80" arrivalSpeed="13.31" duration="39.00" routeLength="494.90" waitingTime="0.00" waitingCount="0" stopTime="0.00" timeLoss="1.77" rerouteNo="0" devices="tripinfo_flow_SB.6 routing_flow_SB.6" vType="default" speedFactor="0.97" vaporized=""/>
    <tripinfo id="flow_WB.6" depart="106.00" departLane="WB_in_0" departPos="5.10" departSpeed="13.08" departDelay="0.63" arrival="191.00" arrivalLane="NB_out_0" arrivalPos="246.00" arrivalSpeed="12.44" duration="85.00" routeLength="495.43" waitingTime="39.00" waitingCount="1" stopTime="0.00" timeLoss="46.40" rerouteNo="0" devices="tripinfo_flow_WB.6 routing_flow_WB.6" vType="default" speedFactor="0.94" vaporized=""/>
    <tripinfo id="flow_WB.7" depart="123.00" departLane="WB_in_0" departPos="5.10" departSpeed="13.89" departDelay="0.07" arrival="193.00" arrivalLane="NB_out_0" arrivalPos="246.00" arrivalSpeed="13.04" duration="70.00" routeLength="495.43" waitingTime="26.00" waitingCount="1" stopTime="0.00" timeLoss="33.51" rerouteNo="0" devices="tripinfo_flow_WB.7 routing_flow_WB.7" vType="default" speedFactor="1.02" vaporized=""/>
    <tripinfo id="flow_WB.8" depart="141.00" departLane="WB_in_0" departPos="5.10" departSpeed="12.36" departDelay="0.51" arrival="197.00" arrivalLane="NB_out_0" arrivalPos="246.00" arrivalSpeed="12.06" duration="56.00" routeLength="495.43" waitingTime="7.00" waitingCount="1" stopTime="0.00" timeLoss="14.81" rerouteNo="0" devices="tripinfo_flow_WB.8 routing_flow_WB.8" vType="default" speedFactor="0.89" vaporized=""/>
    <tripinfo id="flow_SB.7" depart="157.00" departLane="SB_in_0" departPos="5.10" departSpeed="12.12" departDelay="0.48" arrival="210.00" arrivalLane="SB_out_0" arrivalPos="242.80" arrivalSpeed="11.67" duration="53.00" routeLength="494.90" waitingTime="5.00" waitingCount="1" stopTime="0.00" timeLoss="11.75" rerouteNo="0" devices="tripinfo_flow_SB.7 routing_flow_SB.7" vType="default" speedFactor="0.87" vaporized=""/>
    <tripinfo id="flow_NB.8" depart="149.00" departLane="NB_in_0" departPos="5.10" departSpeed="11.47" departDelay="0.54" arrival="211.00" arrivalLane="WB_out_0" arrivalPos="242.80" arrivalSpeed="10.78" duration="62.00" routeLength="489.53" waitingTime="11.00" waitingCount="1" stopTime="0.00" timeLoss="18.60" rerouteNo="0" devices="tripinfo_flow_NB.8 routing_flow_NB.8" vType="default" speedFactor="0.83" vaporized=""/>
    <tripinfo id="flow_NB.9" depart="168.00" departLane="NB_in_0" departPos="5.10" departSpeed="13.18" departDelay="0.99" arrival="213.00" arrivalLane="WB_out_0" arrivalPos="242.80" arrivalSpeed="12.99" duration="45.00" routeLength="489.53" waitingTime="0.00" waitingCount="0" stopTime="0.00" timeLoss="6.60" rerouteNo="0" devices="tripinfo_flow_NB.9 routing_flow_NB.9" vType="default" speedFactor="0.95" vaporized=""/>
    <tripinfo id="flow_SB.8" depart="179.00" departLane="SB_in_0" departPos="5.10" departSpeed="12.94" departDelay="0.12" arrival="220.00" arrivalLane="SB_out_0" arrivalPos="242.80" arrivalSpeed="12.82" duration="41.00" routeLength="494.90" waitingTime="0.00" waitingCount="0" stopTime="0.00" timeLoss="1.83" rerouteNo="0" devices="tripinfo_flow_SB.8 routing_flow_SB.8" vType="default" speedFactor="0.93" vaporized=""/>
    <tripinfo id="flow_NB.10" depart="186.00" departLane="NB_in_0" departPos="5.10" departSpeed="13.89" departDelay="0.43" arrival="225.00" arrivalLane="WB_out_0" arrivalPos="242.80" arrivalSpeed="13.83" duration="39.00" routeLength="489.53" waitingTime="0.00" waitingCount="0" stopTime="0.00" timeLoss="2.85" rerouteNo="0" devices="tripinfo_flow_NB.10 routing_flow_NB.10" vType="default" speedFactor="1.18" vaporized=""/>
    <tripinfo id="flow_SB.9" depart="202.00" departLane="SB_in_0" departPos="5.10" departSpeed="13.89" departDelay="0.76" arrival="240.00" arrivalLane="SB_out_0" arrivalPos="242.80" arrivalSpeed="13.59" duration="38.00" routeLength="494.90" waitingTime="0.00" waitingCount="0" stopTime="0.00" timeLoss="1.86" rerouteNo="0" devices="tripinfo_flow_SB.9 routing_flow_SB.9" vType="default" speedFactor="1.01" vaporized=""/>
    <tripinfo id="flow_NB.11" depart="205.00" departLane="NB_in_0" departPos="5.10" departSpeed="13.89" departDelay="0.87" arrival="244.00" arrivalLane="WB_out_0" arrivalPos="242.80" arrivalSpeed="12.83" duration="39.00" routeLength="489.53" waitingTime="0.00" waitingCount="0" stopTime="0.00" timeLoss="3.03" rerouteNo="0" devices="tripinfo_flow_NB.11 routing_flow_NB.11" vType="default" speedFactor="1.17" vaporized=""/>
    <tripinfo id="flow_WB.9" depart="159.00" departLane="WB_in_0" departPos="5.10" departSpeed="12.74" departDelay="0.95" arrival="253.00" arrivalLane="NB_out_0" arrivalPos="246.00" arrivalSpeed="11.55" duration="94.00" routeLength="495.43" waitingTime="49.00" waitingCount="1" stopTime="0.00" timeLoss="54.54" rerouteNo="0" devices="tripinfo_flow_WB.9 routing_flow_WB.9" vType="default" speedFactor="0.92" vaporized=""/>
    <tripinfo id="flow_WB.10" depart="176.00" departLane="WB_in_0" departPos="5.10" departSpeed="13.89" departDelay="0.39" arrival="255.00" arrivalLane="NB_out_0" arrivalPos="246.00" arrivalSpeed="13.31" duration="79.00" routeLength="495.43" waitingTime="34.00" waitingCount="1" stopTime="0.00" timeLoss="42.10" rerouteNo="0" devices="tripinfo_flow_WB.10 routing_flow_WB.10" vType="default" speedFactor="1.13" vaporized=""/>
    <tripinfo id="flow_WB.11" depart="194.00" departLane="WB_in_0" departPos="5.10" departSpeed="13.89" departDelay="0.83" arrival="257.00" arrivalLane="NB_out_0" arrivalPos="246.00" arrivalSpeed="13.83" duration="63.00" routeLength="495.43" waitingTime="18.00" waitingCount="1" stopTime="0.00" timeLoss="26.26" rerouteNo="0" devices="tripinfo_flow_WB.11 routing_flow_WB.11" vType="default" speedFactor="1.15" vaporized=""/>
    <tripinfo id="flow_WB.12" depart="211.00" departLane="WB_in_0" departPos="5.10" departSpeed="13.82" departDelay="0.27" arrival="259.00" arrivalLane="NB_out_0" arrivalPos="246.00" arrivalSpeed="12.93" duration="48.00" routeLength="495.43" waitingTime="3.00" waitingCount="1" stopTime="0.00" timeLoss="11.03" rerouteNo="0" devices="tripinfo_flow_WB.12 routing_flow_WB.12" vType="default" speedFactor="0.99" vaporized=""/>
    <tripinfo id="flow_NB.12" depart="223.00" departLane="NB_in_0" departPos="5.10" departSpeed="13.89" departDelay="0.32" arrival="270.00" arrivalLane="WB_out_0" arrivalPos="242.80" arrivalSpeed="13.11" duration="47.00" routeLength="489.53" waitingTime="3.00" waitingCount="1" stopTime="0.00" timeLoss="10.56" rerouteNo="0" devices="tripinfo_flow_NB.12 routing_flow_NB.12" vType="default" speedFactor="1.02" vaporized=""/>
    <tripinfo id="flow_SB.10" depart="224.00" departLane="SB_in_0" departPos="5.10" departSpeed="13.52" departDelay="0.40" arrival="270.00" arrivalLane="SB_out_0" arrivalPos="242.80" arrivalSpeed="13.23" duration="46.00" routeLength="494.90" waitingTime="3.00" waitingCount="1" stopTime="0.00" timeLoss="8.77" rerouteNo="0" devices="tripinfo_flow_SB.10 routing_flow_SB.10" vType="default" speedFactor="0.97" vaporized=""/>
    <tripinfo id="flow_NB.13" depart="242.00" departLane="NB_in_0" departPos="5.10" departSpeed="13.89" departDelay="0.76" arrival="282.00" arrivalLane="WB_out_0" arrivalPos="242.80" arrivalSpeed="13.49" duration="40.00" routeLength="489.53" waitingTime="0.00" waitingCount="0" stopTime="0.00" timeLoss="3.41" rerouteNo="0" devices="tripinfo_flow_NB.13 routing_flow_NB.13" vType="default" speedFactor="1.10" vaporized=""/>
    <tripinfo id="flow_SB.11" depart="246.00" departLane="SB_in_0" departPos="5.10" departSpeed="12.51" departDelay="0.04" arrival="289.00" arrivalLane="SB_out_0" arrivalPos="242.80" arrivalSpeed="12.22" duration="43.00" routeLength="494.90" waitingTime="0.00" waitingCount="0" stopTime="0.00" timeLoss="2.50" rerouteNo="0" devices="tripinfo_flow_SB.11 routing_flow_SB.11" vType="default" speedFactor="0.90" vaporized=""/>
    <tripinfo id="flow_NB.14" depart="260.00" departLane="NB_in_0" departPos="5.10" departSpeed="13.29" departDelay="0.20" arrival="302.00" arrivalLane="WB_out_0" arrivalPos="242.80" arrivalSpeed="12.65" duration="42.00" routeLength="489.53" waitingTime="0.00" waitingCount="0" stopTime="0.00" timeLoss="3.75" rerouteNo="0" devices="tripinfo_flow_NB.14 routing_flow_NB.14" vType="default" speedFactor="0.96" vaporized=""/>
    <tripinfo id="flow_WB.13" depart="229.00" departLane="WB_in_0" departPos="5.10" departSpeed="13.89" departDelay="0.71" arrival="314.00" arrivalLane="NB_out_0" arrivalPos="246.00" arrivalSpeed="12.86" duration="85.00" routeLength="495.43" waitingTime="41.00" waitingCount="1" stopTime="0.00" timeLoss="48.26" rerouteNo="0" devices="tripinfo_flow_WB.13 routing_flow_WB.13" vType="default" speedFactor="1.18" vaporized=""/>
    <tripinfo id="flow_WB.14" depart="246.00" departLane="WB_in_0" departPos="5.10" departSpeed="13.89" departDelay="0.15" arrival="316.00" arrivalLane="NB_out_0" arrivalPos="246.00" arrivalSpeed="13.42" duration="70.00" routeLength="495.43" waitingTime="27.00" waitingCount="1" stopTime="0.00" timeLoss="33.46" rerouteNo="0" devices="tripinfo_flow_WB.14 routing_flow_WB.14" vType="default" speedFactor="1.03" vaporized=""/>
    <tripinfo id="flow_WB.15" depart="264.00" departLane="WB_in_0" departPos="5.10" departSpeed="13.89" departDelay="0.59" arrival="318.00" arrivalLane="NB_out_0" arrivalPos="246.00" arrivalSpeed="13.31" duration="54.00" routeLength="495.43" waitingTime="10.00" waitingCount="1" stopTime="0.00" timeLoss="17.45" rerouteNo="0" devices="tripinfo_flow_WB.15 routing_flow_WB.15" vType="default" speedFactor="1.09" vaporized=""/>
    <tripinfo id="flow_WB.16" depart="281.00" departLane="WB_in_0" departPos="5.10" departSpeed="13.89" departDelay="0.02" arrival="321.00" arrivalLane="NB_out_0" arrivalPos="246.00" arrivalSpeed="13.38" duration="40.00" routeLength="495.43" waitingTime="0.00" waitingCount="0" stopTime="0.00" timeLoss="3.15" rerouteNo="0" devices="tripinfo_flow_WB.16 routing_flow_WB.16" vType="default" speedFactor="1.09" vaporized=""/>
    <tripinfo id="flow_SB.12" depart="269.00" departLane="SB_in_0" departPos="5.10" departSpeed="13.89" departDelay="0.68" arrival="331.00" arrivalLane="SB_out_0" arrivalPos="242.80" arrivalSpeed="13.63" duration="62.00" routeLength="494.90" waitingTime="18.00" waitingCount="1" stopTime="0.00" timeLoss="26.33" rerouteNo="0" devices="tripinfo_flow_SB.12 routing_flow_SB.12" vType="default" speedFactor="1.04" vaporized=""/>
    <tripinfo id="flow_NB.15" depart="279.00" departLane="NB_in_0" departPos="5.10" departSpeed="13.89" departDelay="0.65" arrival="331.00" arrivalLane="WB_out_0" arrivalPos="242.80" arrivalSpeed="13.48" duration="52.00" routeLength="489.53" waitingTime="10.00" waitingCount="1" stopTime="0.00" timeLoss="16.16" rerouteNo="0" devices="tripinfo_flow_NB.15 routing_flow_NB.15" vType="default" speedFactor="1.04" vaporized=""/>
    <tripinfo id="flow_SB.13" depart="291.00" departLane="SB_in_0" departPos="5.10" departSpeed="13.85" departDelay="0.32" arrival="334.00" arrivalLane="SB_out_0" arrivalPos="242.80" arrivalSpeed="13.09" duration="43.00" routeLength="494.90" waitingTime="0.00" waitingCount="0" stopTime="0.00" timeLoss="6.34" rerouteNo="0" devices="tripinfo_flow_SB.13 routing_flow_SB.13" vType="default" speedFactor="1.00" vaporized=""/>
    <tripinfo id="flow_NB.16" depart="297.00" departLane="NB_in_0" departPos="5.10" departSpeed="12.51" departDelay="0.09" arrival="341.00" arrivalLane="WB_out_0" arrivalPos="242.80" arrivalSpeed="12.31" duration="44.00" routeLength="489.53" waitingTime="0.00" waitingCount="0" stopTime="0.00" timeLoss="3.66" rerouteNo="0" devices="tripinfo_flow_NB.16 routing_flow_NB.16" vType="default" speedFactor="0.90" vaporized=""/>
    <tripinfo id="flow_SB.14" depart="314.00" departLane="SB_in_0" departPos="5.10" departSpeed="11.81" departDelay="0.96" arrival="359.00" arrivalLane="SB_out_0" arrivalPos="242.80" arrivalSpeed="10.58" duration="45.00" routeLength="494.90" waitingTime="0.00" waitingCount="0" stopTime="0.00" timeLoss="2.69" rerouteNo="0" devices="tripinfo_flow_SB.14 routing_flow_SB.14" vType="default" speedFactor="0.85" vaporized=""/>
    <tripinfo id="flow_NB.17" depart="316.00" departLane="NB_in_0" departPos="5.10" departSpeed="11.87" departDelay="0.53" arrival="362.00" arrivalLane="WB_out_0" arrivalPos="242.80" arrivalSpeed="11.22" duration="46.00" routeLength="489.53" waitingTime="0.00" waitingCount="0" stopTime="0.00" timeLoss="3.81" rerouteNo="0" devices="tripinfo_flow_NB.17 routing_flow_NB.17" vType="default" speedFactor="0.85" vaporized=""/>
    <tripinfo id="flow_WB.17" depart="299.00" departLane="WB_in_0" departPos="5.10" departSpeed="12.18" departDelay="0.46" arrival="379.00" arrivalLane="NB_out_0" arrivalPos="246.00" arrivalSpeed="12.14" duration="80.00" routeLength="495.43" waitingTime="30.00" waitingCount="1" stopTime="0.00" timeLoss="37.77" rerouteNo="0" devices="tripinfo_flow_WB.17 routing_flow_WB.17" vType="default" speedFactor="0.88" vaporized=""/>
    <tripinfo id="flow_WB.18" depart="317.00" departLane="WB_in_0" departPos="5.10" departSpeed="13.89" departDelay="0.90" arrival="380.00" arrivalLane="NB_out_0" arrivalPos="246.00" arrivalSpeed="13.18" duration="63.00" routeLength="495.43" waitingTime="17.00" waitingCount="1" stopTime="0.00" timeLoss="26.95" rerouteNo="0" devices="tripinfo_flow_WB.18 routing_flow_WB.18" vType="default" speedFactor="1.17" vaporized=""/>
    <tripinfo id="flow_WB.19" depart="334.00" departLane="WB_in_0" departPos="5.10" departSpeed="13.89" departDelay="0.34" arrival="382.00" arrivalLane="NB_out_0" arrivalPos="246.00" arrivalSpeed="13.38" duration="48.00" routeLength="495.43" waitingTime="1.00" waitingCount="1" stopTime="0.00" timeLoss="11.03" rerouteNo="0" devices="tripinfo_flow_WB.19 routing_flow_WB.19" vType="default" speedFactor="1.02" vaporized=""/>
    <tripinfo id="flow_NB.18" depart="335.00" departLane="NB_in_0" departPos="5.10" departSpeed="13.89" departDelay="0.97" arrival="393.00" arrivalLane="WB_out_0" arrivalPos="242.80" arrivalSpeed="13.56" duration="58.00" routeLength="489.53" waitingTime="15.00" waitingCount="1" stopTime="0.00" timeLoss="22.33" rerouteNo="0" devices="tripinfo_flow_NB.18 routing_flow_NB.18" vType="default" speedFactor="1.10" vaporized=""/>
    <tripinfo id="flow_SB.15" depart="336.00" departLane="SB_in_0" departPos="5.10" departSpeed="13.89" departDelay="0.60" arrival="394.00" arrivalLane="SB_out_0" arrivalPos="242.80" arrivalSpeed="12.85" duration="58.00" routeLength="494.90" waitingTime="13.00" waitingCount="1" stopTime="0.00" timeLoss="21.73" rerouteNo="0" devices="tripinfo_flow_SB.15 routing_flow_SB.15" vType="default" speedFactor="1.00" vaporized=""/>
    <tripinfo id="flow_SB.16" depart="358.00" departLane="SB_in_0" departPos="5.10" departSpeed="13.89" departDelay="0.24" arrival="396.00" arrivalLane="SB_out_0" arrivalPos="242.80" arrivalSpeed="12.72" duration="38.00" routeLength="494.90" waitingTime="0.00" waitingCount="0" stopTime="0.00" timeLoss="1.94" rerouteNo="0" devices="tripinfo_flow_SB.16 routing_flow_SB.16" vType="default" speedFactor="1.14" vaporized=""/>
    <tripinfo id="flow_NB.19" depart="353.00" departLane="NB_in_0" departPos="5.10" departSpeed="12.49" departDelay="0.42" arrival="399.00" arrivalLane="WB_out_0" arrivalPos="242.80" arrivalSpeed="12.19" duration="46.00" routeLength="489.53" waitingTime="0.00" waitingCount="0" stopTime="0.00" timeLoss="5.17" rerouteNo="0" devices="tripinfo_flow_NB.19 routing_flow_NB.19" vType="default" speedFactor="0.90" vaporized=""/>
    <tripinfo id="flow_NB.20" depart="372.00" departLane="NB_in_0" departPos="5.10" departSpeed="13.47" departDelay="0.86" arrival="413.00" arrivalLane="WB_out_0" arrivalPos="242.80" arrivalSpeed="12.97" duration="41.00" routeLength="489.53" waitingTime="0.00" waitingCount="0" stopTime="0.00" timeLoss="4.01" rerouteNo="0" devices="tripinfo_flow_NB.20 routing_flow_NB.20" vType="default" speedFactor="0.97" vaporized=""/>
    <tripinfo id="flow_SB.17" depart="381.00" departLane="SB_in_0" departPos="5.10" departSpeed="13.89" departDelay="0.88" arrival="418.00" arrivalLane="SB_out_0" arrivalPos="242.80" arrivalSpeed="13.30" duration="37.00" routeLength="494.90" waitingTime="0.00" waitingCount="0" stopTime="0.00" timeLoss="1.28" rerouteNo="0" devices="tripinfo_flow_SB.17 routing_flow_SB.17" vType="default" speedFactor="1.08" vaporized=""/>
    <tripinfo id="flow_NB.21" depart="390.00" departLane="NB_in_0" departPos="5.10" departSpeed="13.89" departDelay="0.30" arrival="429.00" arrivalLane="WB_out_0" arrivalPos="242.80" arrivalSpeed="13.22" duration="39.00" routeLength="489.53" waitingTime="0.00" waitingCount="0" stopTime="0.00" timeLoss="2.88" rerouteNo="0" devices="tripinfo_flow_NB.21 routing_flow_NB.21" vType="default" speedFactor="1.02" vaporized=""/>
    <tripinfo id="flow_WB.20" depart="352.00" departLane="WB_in_0" departPos="5.10" departSpeed="13.83" departDelay="0.78" arrival="438.00" arrivalLane="NB_out_0" arrivalPos="246.00" arrivalSpeed="13.81" duration="86.00" routeLength="495.43" waitingTime="42.00" waitingCount="1" stopTime="0.00" timeLoss="49.10" rerouteNo="0" devices="tripinfo_flow_WB.20 routing_flow_WB.20" vType="default" speedFactor="1.00" vaporized=""/>
    <tripinfo id="flow_WB.21" depart="369.00" departLane="WB_in_0" departPos="5.10" departSpeed="13.89" departDelay="0.22" arrival="440.00" arrivalLane="NB_out_0" arrivalPos="246.00" arrivalSpeed="13.42" duration="71.00" routeLength="495.43" waitingTime="27.00" waitingCount="1" stopTime="0.00" timeLoss="34.37" rerouteNo="0" devices="tripinfo_flow_WB.21 routing_flow_WB.21" vType="default" speedFactor="1.02" vaporized=""/>
    <tripinfo id="flow_WB.22" depart="387.00" departLane="WB_in_0" departPos="5.10" departSpeed="13.89" departDelay="0.66" arrival="442.00" arrivalLane="NB_out_0" arrivalPos="246.00" arrivalSpeed="12.89" duration="55.00" routeLength="495.43" waitingTime="11.00" waitingCount="1" stopTime="0.00" timeLoss="18.94" rerouteNo="0" devices="tripinfo_flow_WB.22 routing_flow_WB.22" vType="default" speedFactor="1.12" vaporized=""/>
    <tripinfo id="flow_WB.23" depart="404.00" departLane="WB_in_0" departPos="5.10" departSpeed="13.02" departDelay="0.10" arrival="448.00" arrivalLane="NB_out_0" arrivalPos="246.00" arrivalSpeed="11.79" duration="44.00" routeLength="495.43" waitingTime="0.00" waitingCount="0" stopTime="0.00" timeLoss="4.28" rerouteNo="0" devices="tripinfo_flow_WB.23 routing_flow_WB.23" vType="default" speedFactor="0.94" vaporized=""/>
    <tripinfo id="flow_SB.18" depart="403.00" departLane="SB_in_0" departPos="5.10" departSpeed="13.71" departDelay="0.52" arrival="456.00" arrivalLane="SB_out_0" arrivalPos="242.80" arrivalSpeed="12.74" duration="53.00" routeLength="494.90" waitingTime="9.00" waitingCount="1" stopTime="0.00" timeLoss="16.15" rerouteNo="0" devices="tripinfo_flow_SB.18 routing_flow_SB.18" vType="default" speedFactor="0.99" vaporized=""/>
    <tripinfo id="flow_NB.22" depart="409.00" departLane="NB_in_0" departPos="5.10" departSpeed="12.26" departDelay="0.75" arrival="458.00" arrivalLane="WB_out_0" arrivalPos="242.80" arrivalSpeed="11.34" duration="49.00" routeLength="489.53" waitingTime="1.00" waitingCount="1" stopTime="0.00" timeLoss="8.22" rerouteNo="0" devices="tripinfo_flow_NB.22 routing_flow_NB.22" vType="default" speedFactor="0.88" vaporized=""/>
    <tripinfo id="flow_SB.19" depart="425.00" departLane="SB_in_0" departPos="5.10" departSpeed="12.70" departDelay="0.16" arrival="467.00" arrivalLane="SB_out_0" arrivalPos="242.80" arrivalSpeed="12.24" duration="42.00" routeLength="494.90" waitingTime="0.00" waitingCount="0" stopTime="0.00" timeLoss="2.14" rerouteNo="0" devices="tripinfo_flow_SB.19 routing_flow_SB.19" vType="default" speedFactor="0.91" vaporized=""/>
    <tripinfo id="flow_NB.23" depart="427.00" departLane="NB_in_0" departPos="5.10" departSpeed="13.89" departDelay="0.19" arrival="467.00" arrivalLane="WB_out_0" arrivalPos="242.80" arrivalSpeed="13.75" duration="40.00" routeLength="489.53" waitingTime="0.00" waitingCount="0" stopTime="0.00" timeLoss="3.05" rerouteNo="0" devices="tripinfo_flow_NB.23 routing_flow_NB.23" vType="default" speedFactor="1.04" vaporized=""/>