<?xml version="1.0" encoding="UTF-8"?>

<!-- generated on 2025-11-12 18:54:29 by Eclipse SUMO GUI Version 1.24.0
<sumoConfiguration xmlns:xsi="http://www.w3.org/2001/XMLSchema-instance" xsi:noNamespaceSchemaLocation="http://sumo.dlr.de/xsd/sumoConfiguration.xsd">

    <input>
        <net-file value="D:\Coding\Signaloptimiser\sumo_network.net.xml"/>
        <route-files value="D:\Coding\Signaloptimiser\generated_routes.rou.xml"/>
        <additional-files value="D:\Coding\Signaloptimiser\webster_traffic_lights.add.xml"/>
    </input>

    <output>
        <summary-output value="D:\Coding\Signaloptimiser\sumo_output_Webster.xml"/>
        <tripinfo-output value="D:\Coding\Signaloptimiser\tripinfo_Webster.xml"/>
    </output>

    <time>
        <begin value="0"/>
        <end value="3600"/>
    </time>

    <processing>
        <collision.action value="none"/>
        <time-to-teleport value="-1"/>
        <max-depart-delay value="-1"/>
    </processing>

    <report>
        <no-warnings value="true"/>
        <no-step-log value="true"/>
    </report>

</sumoConfiguration>
-->

<tripinfos xmlns:xsi="http://www.w3.org/2001/XMLSchema-instance" xsi:noNamespaceSchemaLocation="http://sumo.dlr.de/xsd/tripinfo_file.xsd">
    <tripinfo id="flow_NB_T.0" depart="0.00" departLane="NB_in_0" departPos="210.63" departSpeed="13.89" departDelay="0.00" arrival="22.00" arrivalLane="NB_out_0" arrivalPos="236.40" arrivalSpeed="13.06" duration="22.00" routeLength="289.37" waitingTime="0.00" waitingCount="0" stopTime="0.00" timeLoss="0.97" rerouteNo="0" devices="tripinfo_flow_NB_T.0 routing_flow_NB_T.0" vType="default" speedFactor="1.06" vaporized=""/>
    <tripinfo id="flow_NB_T.1" depart="1.00" departLane="NB_in_1" departPos="175.71" departSpeed="13.89" departDelay="0.06" arrival="26.00" arrivalLane="NB_out_1" arrivalPos="236.40" arrivalSpeed="12.93" duration="25.00" routeLength="324.29" waitingTime="0.00" waitingCount="0" stopTime="0.00" timeLoss="1.13" rerouteNo="0" devices="tripinfo_flow_NB_T.1 routing_flow_NB_T.1" vType="default" speedFactor="1.05" vaporized=""/>
    <tripinfo id="flow_SB_L.4" depart="4.00" departLane="SB_in_2" departPos="221.99" departSpeed="9.30" departDelay="0.52" arrival="27.00" arrivalLane="WB_out_1" arrivalPos="236.40" arrivalSpeed="12.96" duration="23.00" routeLength="277.96" waitingTime="0.00" waitingCount="0" stopTime="0.00" timeLoss="1.55" rerouteNo="0" devices="tripinfo_flow_SB_L.4 routing_flow_SB_L.4" vType="default" speedFactor="0.97" vaporized=""/>
    <tripinfo id="flow_NB_R.0" depart="0.00" departLane="NB_in_0" departPos="168.43" departSpeed="13.03" departDelay="0.00" arrival="29.00" arrivalLane="WB_out_0" arrivalPos="236.40" arrivalSpeed="12.83" duration="29.00" routeLength="313.40" waitingTime="0.00" waitingCount="0" stopTime="0.00" timeLoss="3.56" rerouteNo="0" devices="tripinfo_flow_NB_R.0 routing_flow_NB_R.0" vType="default" speedFactor="0.94" vaporized=""/>
    <tripinfo id="flow_SB_T.0" depart="0.00" departLane="SB_in_0" departPos="116.18" departSpeed="13.89" departDelay="0.00" arrival="30.00" arrivalLane="SB_out_2" arrivalPos="236.40" arrivalSpeed="13.86" duration="30.00" routeLength="383.82" waitingTime="0.00" waitingCount="0" stopTime="0.00" timeLoss="1.93" rerouteNo="0" devices="tripinfo_flow_SB_T.0 routing_flow_SB_T.0" vType="default" speedFactor="1.08" vaporized=""/>
    <tripinfo id="flow_SB_T.1" depart="1.00" departLane="SB_in_1" departPos="176.15" departSpeed="11.90" departDelay="0.13" arrival="30.00" arrivalLane="SB_out_1" arrivalPos="236.40" arrivalSpeed="11.80" duration="29.00" routeLength="323.85" waitingTime="0.00" waitingCount="0" stopTime="0.00" timeLoss="1.24" rerouteNo="0" devices="tripinfo_flow_SB_T.1 routing_flow_SB_T.1" vType="default" speedFactor="0.86" vaporized=""/>
    <tripinfo id="flow_NB_R.2" depart="2.00" departLane="NB_in_0" departPos="159.10" departSpeed="13.89" departDelay="0.11" arrival="30.00" arrivalLane="WB_out_0" arrivalPos="236.40" arrivalSpeed="12.83" duration="28.00" routeLength="322.73" waitingTime="0.00" waitingCount="0" stopTime="0.00" timeLoss="3.62" rerouteNo="0" devices="tripinfo_flow_NB_R.2 routing_flow_NB_R.2" vType="default" speedFactor="1.03" vaporized=""/>
    <tripinfo id="flow_SB_T.4" depart="4.00" departLane="SB_in_0" departPos="194.87" departSpeed="12.36" departDelay="0.52" arrival="31.00" arrivalLane="SB_out_0" arrivalPos="236.40" arrivalSpeed="11.59" duration="27.00" routeLength="305.13" waitingTime="0.00" waitingCount="0" stopTime="0.00" timeLoss="1.45" rerouteNo="0" devices="tripinfo_flow_SB_T.4 routing_flow_SB_T.4" vType="default" speedFactor="0.89" vaporized=""/>
    <tripinfo id="flow_NB_T.7" depart="7.00" departLane="NB_in_2" departPos="191.89" departSpeed="13.52" departDelay="0.39" arrival="31.00" arrivalLane="NB_out_2" arrivalPos="236.40" arrivalSpeed="12.48" duration="24.00" routeLength="308.11" waitingTime="0.00" waitingCount="0" stopTime="0.00" timeLoss="0.94" rerouteNo="0" devices="tripinfo_flow_NB_T.7 routing_flow_NB_T.7" vType="default" speedFactor="0.97" vaporized=""/>
    <tripinfo id="flow_NB_T.8" depart="8.00" departLane="NB_in_1" departPos="234.57" departSpeed="1.83" departDelay="0.45" arrival="31.00" arrivalLane="NB_out_1" arrivalPos="236.40" arrivalSpeed="13.87" duration="23.00" routeLength="265.43" waitingTime="0.00" waitingCount="0" stopTime="0.00" timeLoss="3.03" rerouteNo="0" devices="tripinfo_flow_NB_T.8 routing_flow_NB_T.8" vType="default" speedFactor="1.04" vaporized=""/>
    <tripinfo id="flow_SB_T.2" depart="2.00" departLane="SB_in_0" departPos="106.88" departSpeed="13.89" departDelay="0.26" arrival="32.00" arrivalLane="SB_out_0" arrivalPos="236.40" arrivalSpeed="13.03" duration="30.00" routeLength="393.12" waitingTime="0.00" waitingCount="0" stopTime="0.00" timeLoss="1.58" rerouteNo="0" devices="tripinfo_flow_SB_T.2 routing_flow_SB_T.2" vType="default" speedFactor="1.12" vaporized=""/>
    <tripinfo id="flow_SB_T.3" depart="3.00" departLane="SB_in_1" departPos="121.27" departSpeed="13.89" departDelay="0.39" arrival="32.00" arrivalLane="SB_out_1" arrivalPos="236.40" arrivalSpeed="13.82" duration="29.00" routeLength="378.73" waitingTime="0.00" waitingCount="0" stopTime="0.00" timeLoss="1.28" rerouteNo="0" devices="tripinfo_flow_SB_T.3 routing_flow_SB_T.3" vType="default" speedFactor="1.16" vaporized=""/>
    <tripinfo id="flow_NB_R.3" depart="3.00" departLane="NB_in_0" departPos="161.60" departSpeed="10.02" departDelay="0.17" arrival="34.00" arrivalLane="WB_out_0" arrivalPos="236.40" arrivalSpeed="12.33" duration="31.00" routeLength="320.23" waitingTime="0.00" waitingCount="0" stopTime="0.00" timeLoss="5.15" rerouteNo="0" devices="tripinfo_flow_NB_R.3 routing_flow_NB_R.3" vType="default" speedFactor="0.94" vaporized=""/>
    <tripinfo id="flow_NB_R.4" depart="4.00" departLane="NB_in_0" departPos="149.75" departSpeed="10.34" departDelay="0.22" arrival="36.00" arrivalLane="WB_out_0" arrivalPos="236.40" arrivalSpeed="13.81" duration="32.00" routeLength="332.08" waitingTime="0.00" waitingCount="0" stopTime="0.00" timeLoss="6.90" rerouteNo="0" devices="tripinfo_flow_NB_R.4 routing_flow_NB_R.4" vType="default" speedFactor="1.01" vaporized=""/>
    <tripinfo id="flow_SB_T.11" depart="10.00" departLane="SB_in_0" departPos="165.36" departSpeed="13.89" departDelay="0.44" arrival="36.00" arrivalLane="SB_out_0" arrivalPos="236.40" arrivalSpeed="13.24" duration="26.00" routeLength="334.64" waitingTime="0.00" waitingCount="0" stopTime="0.00" timeLoss="1.22" rerouteNo="0" devices="tripinfo_flow_SB_T.11 routing_flow_SB_T.11" vType="default" speedFactor="1.14" vaporized=""/>
    <tripinfo id="flow_SB_L.1" depart="1.00" departLane="SB_in_2" departPos="128.90" departSpeed="13.03" departDelay="0.13" arrival="37.00" arrivalLane="WB_out_1" arrivalPos="236.40" arrivalSpeed="12.95" duration="36.00" routeLength="371.05" waitingTime="0.00" waitingCount="0" stopTime="0.00" timeLoss="6.12" rerouteNo="0" devices="tripinfo_flow_SB_L.1 routing_flow_SB_L.1" vType="default" speedFactor="0.94" vaporized=""/>
    <tripinfo id="flow_SB_T.8" depart="7.00" departLane="SB_in_1" departPos="129.26" departSpeed="13.29" departDelay="0.05" arrival="37.00" arrivalLane="SB_out_1" arrivalPos="236.40" arrivalSpeed="12.35" duration="30.00" routeLength="370.74" waitingTime="0.00" waitingCount="0" stopTime="0.00" timeLoss="1.58" rerouteNo="0" devices="tripinfo_flow_SB_T.8 routing_flow_SB_T.8" vType="default" speedFactor="0.96" vaporized=""/>
    <tripinfo id="flow_NB_R.9" depart="9.00" departLane="NB_in_0" departPos="195.16" departSpeed="4.76" departDelay="0.50" arrival="37.00" arrivalLane="WB_out_0" arrivalPos="236.40" arrivalSpeed="13.83" duration="28.00" routeLength="286.67" waitingTime="0.00" waitingCount="0" stopTime="0.00" timeLoss="6.83" rerouteNo="0" devices="tripinfo_flow_NB_R.9 routing_flow_NB_R.9" vType="default" speedFactor="1.17" vaporized=""/>
    <tripinfo id="flow_NB_T.6" depart="6.00" departLane="NB_in_1" departPos="97.24" departSpeed="13.89" departDelay="0.34" arrival="38.00" arrivalLane="NB_out_1" arrivalPos="236.40" arrivalSpeed="12.87" duration="32.00" routeLength="402.76" waitingTime="0.00" waitingCount="0" stopTime="0.00" timeLoss="2.22" rerouteNo="0" devices="tripinfo_flow_NB_T.6 routing_flow_NB_T.6" vType="default" speedFactor="1.01" vaporized=""/>
    <tripinfo id="flow_NB_T.11" depart="11.00" departLane="NB_in_2" departPos="184.63" departSpeed="13.89" departDelay="0.62" arrival="38.00" arrivalLane="NB_out_2" arrivalPos="236.40" arrivalSpeed="12.64" duration="27.00" routeLength="315.37" waitingTime="0.00" waitingCount="0" stopTime="0.00" timeLoss="4.17" rerouteNo="0" devices="tripinfo_flow_NB_T.11 routing_flow_NB_T.11" vType="default" speedFactor="1.08" vaporized=""/>
    <tripinfo id="flow_SB_T.17" depart="15.00" departLane="SB_in_0" departPos="221.62" departSpeed="9.77" departDelay="0.23" arrival="38.00" arrivalLane="SB_out_0" arrivalPos="236.40" arrivalSpeed="13.07" duration="23.00" routeLength="278.38" waitingTime="0.00" waitingCount="0" stopTime="0.00" timeLoss="1.86" rerouteNo="0" devices="tripinfo_flow_SB_T.17 routing_flow_SB_T.17" vType="default" speedFactor="0.98" vaporized=""/>
    <tripinfo id="flow_NB_T.4" depart="4.00" departLane="NB_in_2" departPos="72.59" departSpeed="13.89" departDelay="0.22" arrival="40.00" arrivalLane="NB_out_1" arrivalPos="236.40" arrivalSpeed="13.76" duration="36.00" routeLength="427.41" waitingTime="0.00" waitingCount="0" stopTime="0.00" timeLoss="5.12" rerouteNo="0" devices="tripinfo_flow_NB_T.4 routing_flow_NB_T.4" vType="default" speedFactor="1.02" vaporized=""/>
    <tripinfo id="flow_SB_T.5" depart="5.00" departLane="SB_in_1" departPos="78.32" departSpeed="12.94" departDelay="0.66" arrival="40.00" arrivalLane="SB_out_1" arrivalPos="236.40" arrivalSpeed="12.09" duration="35.00" routeLength="421.68" waitingTime="0.00" waitingCount="0" stopTime="0.00" timeLoss="1.64" rerouteNo="0" devices="tripinfo_flow_SB_T.5 routing_flow_SB_T.5" vType="default" speedFactor="0.93" vaporized=""/>
    <tripinfo id="flow_SB_T.6" depart="6.00" departLane="SB_in_0" departPos="57.06" departSpeed="13.89" departDelay="0.79" arrival="40.00" arrivalLane="SB_out_0" arrivalPos="236.40" arrivalSpeed="12.64" duration="34.00" routeLength="442.94" waitingTime="0.00" waitingCount="0" stopTime="0.00" timeLoss="1.48" rerouteNo="0" devices="tripinfo_flow_SB_T.6 routing_flow_SB_T.6" vType="default" speedFactor="1.02" vaporized=""/>
    <tripinfo id="flow_SB_T.7" depart="7.00" departLane="SB_in_1" departPos="65.92" departSpeed="13.89" departDelay="0.92" arrival="41.00" arrivalLane="SB_out_2" arrivalPos="236.40" arrivalSpeed="13.67" duration="34.00" routeLength="434.08" waitingTime="0.00" waitingCount="0" stopTime="0.00" timeLoss="2.30" rerouteNo="0" devices="tripinfo_flow_SB_T.7 routing_flow_SB_T.7" vType="default" speedFactor="1.03" vaporized=""/>
    <tripinfo id="flow_NB_R.1" depart="1.00" departLane="NB_in_0" departPos="58.51" departSpeed="12.31" departDelay="0.06" arrival="42.00" arrivalLane="WB_out_0" arrivalPos="236.40" arrivalSpeed="11.19" duration="41.00" routeLength="423.32" waitingTime="0.00" waitingCount="0" stopTime="0.00" timeLoss="5.84" rerouteNo="0" devices="tripinfo_flow_NB_R.1 routing_flow_NB_R.1" vType="default" speedFactor="0.89" vaporized=""/>
    <tripinfo id="flow_NB_T.5" depart="5.00" departLane="NB_in_1" departPos="55.96" departSpeed="12.74" departDelay="0.28" arrival="42.00" arrivalLane="NB_out_0" arrivalPos="236.40" arrivalSpeed="12.37" duration="37.00" routeLength="444.04" waitingTime="0.00" waitingCount="0" stopTime="0.00" timeLoss="1.88" rerouteNo="0" devices="tripinfo_flow_NB_T.5 routing_flow_NB_T.5" vType="default" speedFactor="0.92" vaporized=""/>
    <tripinfo id="flow_SB_T.10" depart="9.00" departLane="SB_in_0" departPos="71.57" departSpeed="13.89" departDelay="0.31" arrival="42.00" arrivalLane="SB_out_0" arrivalPos="236.40" arrivalSpeed="13.66" duration="33.00" routeLength="428.43" waitingTime="0.00" waitingCount="0" stopTime="0.00" timeLoss="1.51" rerouteNo="0" devices="tripinfo_flow_SB_T.10 routing_flow_SB_T.10" vType="default" speedFactor="1.10" vaporized=""/>
    <tripinfo id="flow_NB_R.10" depart="10.00" departLane="NB_in_0" departPos="147.80" departSpeed="9.30" departDelay="0.56" arrival="44.00" arrivalLane="WB_out_0" arrivalPos="236.40" arrivalSpeed="13.56" duration="34.00" routeLength="334.03" waitingTime="0.00" waitingCount="0" stopTime="0.00" timeLoss="8.20" rerouteNo="0" devices="tripinfo_flow_NB_R.10 routing_flow_NB_R.10" vType="default" speedFactor="1.00" vaporized=""/>
    <tripinfo id="flow_SB_T.16" depart="14.00" departLane="SB_in_1" departPos="107.73" departSpeed="13.86" departDelay="0.10" arrival="44.00" arrivalLane="SB_out_2" arrivalPos="236.40" arrivalSpeed="13.36" duration="30.00" routeLength="392.27" waitingTime="0.00" waitingCount="0" stopTime="0.00" timeLoss="1.48" rerouteNo="0" devices="tripinfo_flow_SB_T.16 routing_flow_SB_T.16" vType="default" speedFactor="1.00" vaporized=""/>
    <tripinfo id="flow_SB_T.18" depart="16.00" departLane="SB_in_1" departPos="174.99" departSpeed="10.09" departDelay="0.36" arrival="44.00" arrivalLane="SB_out_1" arrivalPos="236.40" arrivalSpeed="11.82" duration="28.00" routeLength="325.01" waitingTime="0.00" waitingCount="0" stopTime="0.00" timeLoss="1.63" rerouteNo="0" devices="tripinfo_flow_SB_T.18 routing_flow_SB_T.18" vType="default" speedFactor="0.89" vaporized=""/>
    <tripinfo id="flow_SB_T.19" depart="17.00" departLane="SB_in_0" departPos="161.39" departSpeed="11.98" departDelay="0.49" arrival="44.00" arrivalLane="SB_out_0" arrivalPos="236.40" arrivalSpeed="12.74" duration="27.00" routeLength="338.61" waitingTime="0.00" waitingCount="0" stopTime="0.00" timeLoss="1.80" rerouteNo="0" devices="tripinfo_flow_SB_T.19 routing_flow_SB_T.19" vType="default" speedFactor="1.10" vaporized=""/>
    <tripinfo id="flow_NB_R.6" depart="6.00" departLane="NB_in_0" departPos="62.43" departSpeed="13.89" departDelay="0.34" arrival="45.00" arrivalLane="WB_out_1" arrivalPos="236.40" arrivalSpeed="13.39" duration="39.00" routeLength="419.40" waitingTime="0.00" waitingCount="0" stopTime="0.00" timeLoss="7.98" rerouteNo="0" devices="tripinfo_flow_NB_R.6 routing_flow_NB_R.6" vType="default" speedFactor="1.17" vaporized=""/>
    <tripinfo id="flow_NB_T.9" depart="9.00" departLane="NB_in_2" departPos="121.23" departSpeed="11.87" departDelay="0.50" arrival="45.00" arrivalLane="NB_out_1" arrivalPos="236.40" arrivalSpeed="11.86" duration="36.00" routeLength="378.77" waitingTime="0.00" waitingCount="0" stopTime="0.00" timeLoss="4.06" rerouteNo="0" devices="tripinfo_flow_NB_T.9 routing_flow_NB_T.9" vType="default" speedFactor="0.85" vaporized=""/>
    <tripinfo id="flow_NB_T.2" depart="2.00" departLane="NB_in_2" departPos="1.43" departSpeed="13.89" departDelay="0.11" arrival="46.00" arrivalLane="NB_out_2" arrivalPos="236.40" arrivalSpeed="13.27" duration="44.00" routeLength="498.57" waitingTime="0.00" waitingCount="0" stopTime="0.00" timeLoss="7.34" rerouteNo="0" devices="tripinfo_flow_NB_T.2 routing_flow_NB_T.2" vType="default" speedFactor="1.09" vaporized=""/>
    <tripinfo id="flow_NB_T.3" depart="3.00" departLane="NB_in_1" departPos="14.24" departSpeed="12.20" departDelay="0.17" arrival="46.00" arrivalLane="NB_out_0" arrivalPos="236.40" arrivalSpeed="11.50" duration="43.00" routeLength="485.76" waitingTime="0.00" waitingCount="0" stopTime="0.00" timeLoss="2.36" rerouteNo="0" devices="tripinfo_flow_NB_T.3 routing_flow_NB_T.3" vType="default" speedFactor="0.88" vaporized=""/>
    <tripinfo id="flow_NB_R.8" depart="8.00" departLane="NB_in_0" departPos="74.20" departSpeed="11.83" departDelay="0.45" arrival="47.00" arrivalLane="WB_out_0" arrivalPos="236.40" arrivalSpeed="13.48" duration="39.00" routeLength="407.63" waitingTime="0.00" waitingCount="0" stopTime="0.00" timeLoss="8.68" rerouteNo="0" devices="tripinfo_flow_NB_R.8 routing_flow_NB_R.8" vType="default" speedFactor="1.09" vaporized=""/>
    <tripinfo id="flow_SB_T.12" depart="11.00" departLane="SB_in_1" departPos="36.30" departSpeed="13.71" departDelay="0.57" arrival="47.00" arrivalLane="SB_out_1" arrivalPos="236.40" arrivalSpeed="12.72" duration="36.00" routeLength="463.70" waitingTime="0.00" waitingCount="0" stopTime="0.00" timeLoss="1.40" rerouteNo="0" devices="tripinfo_flow_SB_T.12 routing_flow_SB_T.12" vType="default" speedFactor="0.99" vaporized=""/>
    <tripinfo id="flow_NB_T.12" depart="12.00" departLane="NB_in_1" departPos="101.85" departSpeed="10.59" departDelay="0.67" arrival="47.00" arrivalLane="NB_out_1" arrivalPos="236.40" arrivalSpeed="12.27" duration="35.00" routeLength="398.15" waitingTime="0.00" waitingCount="0" stopTime="0.00" timeLoss="4.11" rerouteNo="0" devices="tripinfo_flow_NB_T.12 routing_flow_NB_T.12" vType="default" speedFactor="0.94" vaporized=""/>
    <tripinfo id="flow_NB_T.15" depart="15.00" departLane="NB_in_2" departPos="124.90" departSpeed="13.89" departDelay="0.84" arrival="48.00" arrivalLane="NB_out_2" arrivalPos="236.40" arrivalSpeed="13.36" duration="33.00" routeLength="375.10" waitingTime="0.00" waitingCount="0" stopTime="0.00" timeLoss="5.07" rerouteNo="0" devices="tripinfo_flow_NB_T.15 routing_flow_NB_T.15" vType="default" speedFactor="1.02" vaporized=""/>
    <tripinfo id="flow_NB_T.10" depart="10.00" departLane="NB_in_1" departPos="24.76" departSpeed="13.89" departDelay="0.56" arrival="49.00" arrivalLane="NB_out_1" arrivalPos="236.40" arrivalSpeed="13.41" duration="39.00" routeLength="475.24" waitingTime="0.00" waitingCount="0" stopTime="0.00" timeLoss="4.15" rerouteNo="0" devices="tripinfo_flow_NB_T.10 routing_flow_NB_T.10" vType="default" speedFactor="1.00" vaporized=""/>
    <tripinfo id="flow_NB_T.20" depart="19.00" departLane="NB_in_2" departPos="157.90" departSpeed="13.74" departDelay="0.12" arrival="49.00" arrivalLane="NB_out_2" arrivalPos="236.40" arrivalSpeed="12.98" duration="30.00" routeLength="342.10" waitingTime="0.00" waitingCount="0" stopTime="0.00" timeLoss="5.24" rerouteNo="0" devices="tripinfo_flow_NB_T.20 routing_flow_NB_T.20" vType="default" speedFactor="1.01" vaporized=""/>
    <tripinfo id="flow_SB_T.25" depart="22.00" departLane="SB_in_0" departPos="203.20" departSpeed="11.42" departDelay="0.28" arrival="50.00" arrivalLane="SB_out_0" arrivalPos="236.40" arrivalSpeed="10.35" duration="28.00" routeLength="296.80" waitingTime="0.00" waitingCount="0" stopTime="0.00" timeLoss="1.54" rerouteNo="0" devices="tripinfo_flow_SB_T.25 routing_flow_SB_T.25" vType="default" speedFactor="0.82" vaporized=""/>
    <tripinfo id="flow_NB_R.5" depart="5.00" departLane="NB_in_0" departPos="7.66" departSpeed="13.18" departDelay="0.28" arrival="51.00" arrivalLane="WB_out_0" arrivalPos="236.40" arrivalSpeed="12.56" duration="46.00" routeLength="474.17" waitingTime="0.00" waitingCount="0" stopTime="0.00" timeLoss="9.07" rerouteNo="0" devices="tripinfo_flow_NB_R.5 routing_flow_NB_R.5" vType="default" speedFactor="0.95" vaporized=""/>
    <tripinfo id="flow_SB_T.13" depart="12.00" departLane="SB_in_1" departPos="39.60" departSpeed="9.96" departDelay="0.70" arrival="51.00" arrivalLane="SB_out_1" arrivalPos="236.40" arrivalSpeed="11.99" duration="39.00" routeLength="460.40" waitingTime="0.00" waitingCount="0" stopTime="0.00" timeLoss="2.36" rerouteNo="0" devices="tripinfo_flow_SB_T.13 routing_flow_SB_T.13" vType="default" speedFactor="0.91" vaporized=""/>
    <tripinfo id="flow_NB_T.16" depart="16.00" departLane="NB_in_2" departPos="75.43" departSpeed="13.89" departDelay="0.90" arrival="51.00" arrivalLane="NB_out_2" arrivalPos="236.40" arrivalSpeed="12.63" duration="35.00" routeLength="424.57" waitingTime="0.00" waitingCount="0" stopTime="0.00" timeLoss="4.30" rerouteNo="0" devices="tripinfo_flow_NB_T.16 routing_flow_NB_T.16" vType="default" speedFactor="1.01" vaporized=""/>
    <tripinfo id="flow_NB_T.23" depart="22.00" departLane="NB_in_1" departPos="162.44" departSpeed="12.53" departDelay="0.29" arrival="51.00" arrivalLane="NB_out_1" arrivalPos="236.40" arrivalSpeed="13.08" duration="29.00" routeLength="337.56" waitingTime="0.00" waitingCount="0" stopTime="0.00" timeLoss="3.93" rerouteNo="0" devices="tripinfo_flow_NB_T.23 routing_flow_NB_T.23" vType="default" speedFactor="1.06" vaporized=""/>
    <tripinfo id="flow_SB_T.9" depart="8.00" departLane="SB_in_0" departPos="18.91" departSpeed="12.51" departDelay="0.18" arrival="52.00" arrivalLane="SB_out_0" arrivalPos="236.40" arrivalSpeed="12.06" duration="44.00" routeLength="481.09" waitingTime="0.00" waitingCount="0" stopTime="0.00" timeLoss="4.82" rerouteNo="0" devices="tripinfo_flow_SB_T.9 routing_flow_SB_T.9" vType="default" speedFactor="0.90" vaporized=""/>
    <tripinfo id="flow_NB_T.14" depart="14.00" departLane="NB_in_1" departPos="23.10" departSpeed="13.89" departDelay="0.78" arrival="52.00" arrivalLane="NB_out_1" arrivalPos="236.40" arrivalSpeed="12.83" duration="38.00" routeLength="476.90" waitingTime="0.00" waitingCount="0" stopTime="0.00" timeLoss="3.55" rerouteNo="0" devices="tripinfo_flow_NB_T.14 routing_flow_NB_T.14" vType="default" speedFactor="1.03" vaporized=""/>
    <tripinfo id="flow_SB_T.22" depart="20.00" departLane="SB_in_1" departPos="120.80" departSpeed="7.92" departDelay="0.88" arrival="52.00" arrivalLane="SB_out_2" arrivalPos="236.40" arrivalSpeed="13.01" duration="32.00" routeLength="379.20" waitingTime="0.00" waitingCount="0" stopTime="0.00" timeLoss="3.90" rerouteNo="0" devices="tripinfo_flow_SB_T.22 routing_flow_SB_T.22" vType="default" speedFactor="1.10" vaporized=""/>
    <tripinfo id="flow_NB_R.7" depart="7.00" departLane="NB_in_0" departPos="21.04" departSpeed="10.12" departDelay="0.39" arrival="53.00" arrivalLane="WB_out_0" arrivalPos="236.40" arrivalSpeed="12.65" duration="46.00" routeLength="460.79" waitingTime="0.00" waitingCount="0" stopTime="0.00" timeLoss="11.75" rerouteNo="0" devices="tripinfo_flow_NB_R.7 routing_flow_NB_R.7" vType="default" speedFactor="1.18" vaporized=""/>
    <tripinfo id="flow_NB_T.13" depart="13.00" departLane="NB_in_2" departPos="2.76" departSpeed="13.89" departDelay="0.73" arrival="53.00" arrivalLane="NB_out_2" arrivalPos="236.40" arrivalSpeed="13.51" duration="40.00" routeLength="497.24" waitingTime="0.00" waitingCount="0" stopTime="0.00" timeLoss="3.77" rerouteNo="0" devices="tripinfo_flow_NB_T.13 routing_flow_NB_T.13" vType="default" speedFactor="1.02" vaporized=""/>
    <tripinfo id="flow_SB_T.14" depart="13.00" departLane="SB_in_0" departPos="49.05" departSpeed="13.89" departDelay="0.83" arrival="53.00" arrivalLane="SB_out_0" arrivalPos="236.40" arrivalSpeed="13.26" duration="40.00" routeLength="450.95" waitingTime="0.00" waitingCount="0" stopTime="0.00" timeLoss="7.51" rerouteNo="0" devices="tripinfo_flow_SB_T.14 routing_flow_SB_T.14" vType="default" speedFactor="1.06" vaporized=""/>
    <tripinfo id="flow_NB_T.19" depart="18.00" departLane="NB_in_1" departPos="63.43" departSpeed="9.54" departDelay="0.06" arrival="54.00" arrivalLane="NB_out_1" arrivalPos="236.40" arrivalSpeed="13.31" duration="36.00" routeLength="436.57" waitingTime="0.00" waitingCount="0" stopTime="0.00" timeLoss="4.28" rerouteNo="0" devices="tripinfo_flow_NB_T.19 routing_flow_NB_T.19" vType="default" speedFactor="1.06" vaporized=""/>
    <tripinfo id="flow_SB_T.20" depart="18.00" departLane="SB_in_1" departPos="56.05" departSpeed="13.23" departDelay="0.62" arrival="54.00" arrivalLane="SB_out_1" arrivalPos="236.40" arrivalSpeed="12.53" duration="36.00" routeLength="443.95" waitingTime="0.00" waitingCount="0" stopTime="0.00" timeLoss="2.00" rerouteNo="0" devices="tripinfo_flow_SB_T.20 routing_flow_SB_T.20" vType="default" speedFactor="0.95" vaporized=""/>
    <tripinfo id="flow_NB_R.11" depart="11.00" departLane="NB_in_0" departPos="29.38" departSpeed="13.89" departDelay="0.62" arrival="55.00" arrivalLane="WB_out_0" arrivalPos="236.40" arrivalSpeed="13.11" duration="44.00" routeLength="452.45" waitingTime="0.00" waitingCount="0" stopTime="0.00" timeLoss="10.28" rerouteNo="0" devices="tripinfo_flow_NB_R.11 routing_flow_NB_R.11" vType="default" speedFactor="1.12" vaporized=""/>
    <tripinfo id="flow_SB_T.15" depart="14.00" departLane="SB_in_0" departPos="28.23" departSpeed="13.89" departDelay="0.97" arrival="55.00" arrivalLane="SB_out_0" arrivalPos="236.40" arrivalSpeed="13.20" duration="41.00" routeLength="471.77" waitingTime="0.00" waitingCount="0" stopTime="0.00" timeLoss="6.79" rerouteNo="0" devices="tripinfo_flow_SB_T.15 routing_flow_SB_T.15" vType="default" speedFactor="1.03" vaporized=""/>
    <tripinfo id="flow_NB_T.18" depart="17.00" departLane="NB_in_2" departPos="18.54" departSpeed="13.89" departDelay="0.01" arrival="55.00" arrivalLane="NB_out_2" arrivalPos="236.40" arrivalSpeed="13.18" duration="38.00" routeLength="481.46" waitingTime="0.00" waitingCount="0" stopTime="0.00" timeLoss="2.69" rerouteNo="0" devices="tripinfo_flow_NB_T.18 routing_flow_NB_T.18" vType="default" speedFactor="1.06" vaporized=""/>
    <tripinfo id="flow_SB_T.28" depart="25.00" departLane="SB_in_1" departPos="130.34" departSpeed="11.13" departDelay="0.67" arrival="55.00" arrivalLane="SB_out_2" arrivalPos="236.40" arrivalSpeed="13.86" duration="30.00" routeLength="369.66" waitingTime="0.00" waitingCount="0" stopTime="0.00" timeLoss="2.76" rerouteNo="0" devices="tripinfo_flow_SB_T.28 routing_flow_SB_T.28" vType="default" speedFactor="1.13" vaporized=""/>
    <tripinfo id="flow_NB_T.17" depart="17.00" departLane="NB_in_1" departPos="3.88" departSpeed="13.89" departDelay="0.95" arrival="56.00" arrivalLane="NB_out_1" arrivalPos="236.40" arrivalSpeed="13.07" duration="39.00" routeLength="496.12" waitingTime="0.00" waitingCount="0" stopTime="0.00" timeLoss="2.72" rerouteNo="0" devices="tripinfo_flow_NB_T.17 routing_flow_NB_T.17" vType="default" speedFactor="1.09" vaporized=""/>
    <tripinfo id="flow_SB_T.26" depart="23.00" departLane="SB_in_1" departPos="69.03" departSpeed="13.89" departDelay="0.41" arrival="56.00" arrivalLane="SB_out_1" arrivalPos="236.40" arrivalSpeed="13.07" duration="33.00" routeLength="430.97" waitingTime="0.00" waitingCount="0" stopTime="0.00" timeLoss="1.86" rerouteNo="0" devices="tripinfo_flow_SB_T.26 routing_flow_SB_T.26" vType="default" speedFactor="1.07" vaporized=""/>
    <tripinfo id="flow_NB_T.22" depart="21.00" departLane="NB_in_2" departPos="37.72" departSpeed="13.77" departDelay="0.23" arrival="57.00" arrivalLane="NB_out_2" arrivalPos="236.40" arrivalSpeed="13.76" duration="36.00" routeLength="462.28" waitingTime="0.00" waitingCount="0" stopTime="0.00" timeLoss="1.71" rerouteNo="0" devices="tripinfo_flow_NB_T.22 routing_flow_NB_T.22" vType="default" speedFactor="0.99" vaporized=""/>
    <tripinfo id="flow_NB_T.24" depart="23.00" departLane="NB_in_1" departPos="70.91" departSpeed="10.26" departDelay="0.34" arrival="57.00" arrivalLane="NB_out_1" arrivalPos="236.40" arrivalSpeed="13.87" duration="34.00" routeLength="429.09" waitingTime="0.00" waitingCount="0" stopTime="0.00" timeLoss="3.07" rerouteNo="0" devices="tripinfo_flow_NB_T.24 routing_flow_NB_T.24" vType="default" speedFactor="1.12" vaporized=""/>
    <tripinfo id="flow_SB_T.31" depart="27.00" departLane="SB_in_0" departPos="176.87" departSpeed="10.87" departDelay="0.06" arrival="57.00" arrivalLane="SB_out_0" arrivalPos="236.40" arrivalSpeed="13.11" duration="30.00" routeLength="323.13" waitingTime="0.00" waitingCount="0" stopTime="0.00" timeLoss="6.32" rerouteNo="0" devices="tripinfo_flow_SB_T.31 routing_flow_SB_T.31" vType="default" speedFactor="1.12" vaporized=""/>
    <tripinfo id="flow_SB_T.23" depart="20.00" departLane="SB_in_0" departPos="64.47" departSpeed="12.81" departDelay="0.01" arrival="59.00" arrivalLane="SB_out_0" arrivalPos="236.40" arrivalSpeed="12.50" duration="39.00" routeLength="435.53" waitingTime="0.00" waitingCount="0" stopTime="0.00" timeLoss="4.46" rerouteNo="0" devices="tripinfo_flow_SB_T.23 routing_flow_SB_T.23" vType="default" speedFactor="0.92" vaporized=""/>
    <tripinfo id="flow_SB_T.24" depart="21.00" departLane="SB_in_1" departPos="7.67" departSpeed="13.89" departDelay="0.14" arrival="59.00" arrivalLane="SB_out_1" arrivalPos="236.40" arrivalSpeed="12.99" duration="38.00" routeLength="492.33" waitingTime="0.00" waitingCount="0" stopTime="0.00" timeLoss="1.71" rerouteNo="0" devices="tripinfo_flow_SB_T.24 routing_flow_SB_T.24" vType="default" speedFactor="1.10" vaporized=""/>
    <tripinfo id="flow_NB_T.25" depart="24.00" departLane="NB_in_2" departPos="51.48" departSpeed="13.89" departDelay="0.40" arrival="59.00" arrivalLane="NB_out_2" arrivalPos="236.40" arrivalSpeed="12.68" duration="35.00" routeLength="448.52" waitingTime="0.00" waitingCount="0" stopTime="0.00" timeLoss="1.81" rerouteNo="0" devices="tripinfo_flow_NB_T.25 routing_flow_NB_T.25" vType="default" speedFactor="1.23" vaporized=""/>