<?xml version="1.0" encoding="UTF-8"?>

<!-- generated on 2025-11-12 19:00:45 by Eclipse SUMO GUI Version 1.24.0
<sumoConfiguration xmlns:xsi="http://www.w3.org/2001/XMLSchema-instance" xsi:noNamespaceSchemaLocation="http://sumo.dlr.de/xsd/sumoConfiguration.xsd">

    <input>
        <net-file value="D:\Coding\Signaloptimiser\sumo_network.net.xml"/>
        <route-files value="D:\Coding\Signaloptimiser\generated_routes.rou.xml"/>
        <additional-files value="D:\Coding\Signaloptimiser\webster_traffic_lights.add.xml"/>
    </input>

    <output>
        <summary-output value="D:\Coding\Signaloptimiser\sumo_output_Webster.xml"/>
        <tripinfo-output value="D:\Coding\Signaloptimiser\tripinfo_Webster.xml"/>
    </output>

    <time>
        <begin value="0"/>
        <end value="3600"/>
    </time>

    <processing>
        <collision.action value="none"/>
        <time-to-teleport value="-1"/>
        <max-depart-delay value="-1"/>
    </processing>

    <report>
        <no-warnings value="true"/>
        <no-step-log value="true"/>
    </report>

</sumoConfiguration>
-->

<tripinfos xmlns:xsi="http://www.w3.org/2001/XMLSchema-instance" xsi:noNamespaceSchemaLocation="http://sumo.dlr.de/xsd/tripinfo_file.xsd">
    <tripinfo id="flow_NB_L.0" depart="0.00" departLane="NB_in_0" departPos="210.63" departSpeed="13.89" departDelay="0.00" arrival="23.00" arrivalLane="EB_out_0" arrivalPos="236.40" arrivalSpeed="13.66" duration="23.00" routeLength="271.20" waitingTime="0.00" waitingCount="0" stopTime="0.00" timeLoss="2.69" rerouteNo="0" devices="tripinfo_flow_NB_L.0 routing_flow_NB_L.0" vType="default" speedFactor="1.06" vaporized=""/>
    <tripinfo id="flow_NB_T.0" depart="0.00" departLane="NB_in_1" departPos="168.43" departSpeed="13.03" departDelay="0.00" arrival="27.00" arrivalLane="NB_out_0" arrivalPos="236.40" arrivalSpeed="12.35" duration="27.00" routeLength="331.57" waitingTime="0.00" waitingCount="0" stopTime="0.00" timeLoss="1.38" rerouteNo="0" devices="tripinfo_flow_NB_T.0 routing_flow_NB_T.0" vType="default" speedFactor="0.94" vaporized=""/>
    <tripinfo id="flow_SB_T.0" depart="0.00" departLane="SB_in_1" departPos="139.47" departSpeed="13.89" departDelay="0.00" arrival="28.00" arrivalLane="SB_out_0" arrivalPos="236.40" arrivalSpeed="13.79" duration="28.00" routeLength="360.53" waitingTime="0.00" waitingCount="0" stopTime="0.00" timeLoss="1.29" rerouteNo="0" devices="tripinfo_flow_SB_T.0 routing_flow_SB_T.0" vType="default" speedFactor="1.03" vaporized=""/>
    <tripinfo id="flow_NB_T.5" depart="9.00" departLane="NB_in_2" departPos="226.14" departSpeed="13.89" departDelay="0.07" arrival="30.00" arrivalLane="NB_out_2" arrivalPos="236.40" arrivalSpeed="12.72" duration="21.00" routeLength="273.86" waitingTime="0.00" waitingCount="0" stopTime="0.00" timeLoss="0.99" rerouteNo="0" devices="tripinfo_flow_NB_T.5 routing_flow_NB_T.5" vType="default" speedFactor="1.18" vaporized=""/>
    <tripinfo id="flow_SB_L.0" depart="0.00" departLane="SB_in_0" departPos="116.18" departSpeed="13.89" departDelay="0.00" arrival="31.00" arrivalLane="WB_out_0" arrivalPos="236.40" arrivalSpeed="12.63" duration="31.00" routeLength="365.65" waitingTime="0.00" waitingCount="0" stopTime="0.00" timeLoss="3.26" rerouteNo="0" devices="tripinfo_flow_SB_L.0 routing_flow_SB_L.0" vType="default" speedFactor="1.08" vaporized=""/>
    <tripinfo id="flow_NB_T.1" depart="2.00" departLane="NB_in_0" departPos="110.20" departSpeed="13.89" departDelay="0.21" arrival="32.00" arrivalLane="NB_out_0" arrivalPos="236.40" arrivalSpeed="12.60" duration="30.00" routeLength="389.80" waitingTime="0.00" waitingCount="0" stopTime="0.00" timeLoss="1.45" rerouteNo="0" devices="tripinfo_flow_NB_T.1 routing_flow_NB_T.1" vType="default" speedFactor="1.05" vaporized=""/>
    <tripinfo id="flow_SB_T.1" depart="2.00" departLane="SB_in_0" departPos="106.88" departSpeed="13.89" departDelay="0.14" arrival="32.00" arrivalLane="SB_out_1" arrivalPos="236.40" arrivalSpeed="12.95" duration="30.00" routeLength="393.12" waitingTime="0.00" waitingCount="0" stopTime="0.00" timeLoss="1.38" rerouteNo="0" devices="tripinfo_flow_SB_T.1 routing_flow_SB_T.1" vType="default" speedFactor="1.12" vaporized=""/>
    <tripinfo id="flow_NB_T.6" depart="11.00" departLane="NB_in_1" departPos="228.02" departSpeed="13.89" departDelay="0.28" arrival="32.00" arrivalLane="NB_out_1" arrivalPos="236.40" arrivalSpeed="13.42" duration="21.00" routeLength="271.98" waitingTime="0.00" waitingCount="0" stopTime="0.00" timeLoss="1.05" rerouteNo="0" devices="tripinfo_flow_NB_T.6 routing_flow_NB_T.6" vType="default" speedFactor="1.18" vaporized=""/>
    <tripinfo id="flow_SB_T.3" depart="6.00" departLane="SB_in_2" departPos="149.75" departSpeed="13.89" departDelay="0.41" arrival="33.00" arrivalLane="SB_out_2" arrivalPos="236.40" arrivalSpeed="13.83" duration="27.00" routeLength="350.25" waitingTime="0.00" waitingCount="0" stopTime="0.00" timeLoss="1.17" rerouteNo="0" devices="tripinfo_flow_SB_T.3 routing_flow_SB_T.3" vType="default" speedFactor="1.01" vaporized=""/>
    <tripinfo id="flow_NB_T.3" depart="6.00" departLane="NB_in_1" departPos="121.27" departSpeed="13.89" departDelay="0.64" arrival="35.00" arrivalLane="NB_out_0" arrivalPos="236.40" arrivalSpeed="12.99" duration="29.00" routeLength="378.73" waitingTime="0.00" waitingCount="0" stopTime="0.00" timeLoss="1.47" rerouteNo="0" devices="tripinfo_flow_NB_T.3 routing_flow_NB_T.3" vType="default" speedFactor="1.02" vaporized=""/>
    <tripinfo id="flow_SB_L.1" depart="9.00" departLane="SB_in_0" departPos="161.95" departSpeed="13.89" departDelay="0.30" arrival="36.00" arrivalLane="WB_out_0" arrivalPos="236.40" arrivalSpeed="13.78" duration="27.00" routeLength="319.88" waitingTime="0.00" waitingCount="0" stopTime="0.00" timeLoss="2.96" rerouteNo="0" devices="tripinfo_flow_SB_L.1 routing_flow_SB_L.1" vType="default" speedFactor="1.01" vaporized=""/>
    <tripinfo id="flow_SB_T.2" depart="4.00" departLane="SB_in_1" departPos="76.11" departSpeed="13.08" departDelay="0.27" arrival="39.00" arrivalLane="SB_out_1" arrivalPos="236.40" arrivalSpeed="12.24" duration="35.00" routeLength="423.89" waitingTime="0.00" waitingCount="0" stopTime="0.00" timeLoss="2.03" rerouteNo="0" devices="tripinfo_flow_SB_T.2 routing_flow_SB_T.2" vType="default" speedFactor="0.94" vaporized=""/>
    <tripinfo id="flow_SB_T.7" depart="14.00" departLane="SB_in_1" departPos="191.89" departSpeed="9.29" departDelay="0.96" arrival="39.00" arrivalLane="SB_out_2" arrivalPos="236.40" arrivalSpeed="13.68" duration="25.00" routeLength="308.11" waitingTime="0.00" waitingCount="0" stopTime="0.00" timeLoss="2.42" rerouteNo="0" devices="tripinfo_flow_SB_T.7 routing_flow_SB_T.7" vType="default" speedFactor="1.09" vaporized=""/>
    <tripinfo id="flow_SB_T.9" depart="17.00" departLane="SB_in_0" departPos="219.40" departSpeed="13.83" departDelay="0.23" arrival="39.00" arrivalLane="SB_out_0" arrivalPos="236.40" arrivalSpeed="13.10" duration="22.00" routeLength="280.60" waitingTime="0.00" waitingCount="0" stopTime="0.00" timeLoss="1.06" rerouteNo="0" devices="tripinfo_flow_SB_T.9 routing_flow_SB_T.9" vType="default" speedFactor="1.00" vaporized=""/>
    <tripinfo id="flow_SB_T.4" depart="8.00" departLane="SB_in_1" departPos="71.34" departSpeed="13.18" departDelay="0.55" arrival="43.00" arrivalLane="SB_out_0" arrivalPos="236.40" arrivalSpeed="12.62" duration="35.00" routeLength="428.66" waitingTime="0.00" waitingCount="0" stopTime="0.00" timeLoss="1.57" rerouteNo="0" devices="tripinfo_flow_SB_T.4 routing_flow_SB_T.4" vType="default" speedFactor="0.95" vaporized=""/>
    <tripinfo id="flow_NB_R.0" depart="0.00" departLane="NB_in_2" departPos="10.75" departSpeed="13.89" departDelay="0.00" arrival="44.00" arrivalLane="WB_out_2" arrivalPos="236.40" arrivalSpeed="13.50" duration="44.00" routeLength="486.56" waitingTime="2.00" waitingCount="1" stopTime="0.00" timeLoss="7.72" rerouteNo="0" devices="tripinfo_flow_NB_R.0 routing_flow_NB_R.0" vType="default" speedFactor="1.01" vaporized=""/>
    <tripinfo id="flow_SB_R.0" depart="0.00" departLane="SB_in_2" departPos="10.31" departSpeed="11.54" departDelay="0.00" arrival="46.00" arrivalLane="EB_out_1" arrivalPos="236.40" arrivalSpeed="10.63" duration="46.00" routeLength="487.00" waitingTime="0.00" waitingCount="0" stopTime="0.00" timeLoss="2.72" rerouteNo="0" devices="tripinfo_flow_SB_R.0 routing_flow_SB_R.0" vType="default" speedFactor="0.83" vaporized=""/>
    <tripinfo id="flow_SB_T.5" depart="10.00" departLane="SB_in_0" departPos="29.64" departSpeed="13.89" departDelay="0.69" arrival="46.00" arrivalLane="SB_out_0" arrivalPos="236.40" arrivalSpeed="12.73" duration="36.00" routeLength="470.36" waitingTime="0.00" waitingCount="0" stopTime="0.00" timeLoss="2.03" rerouteNo="0" devices="tripinfo_flow_SB_T.5 routing_flow_SB_T.5" vType="default" speedFactor="1.02" vaporized=""/>
    <tripinfo id="flow_SB_R.1" depart="9.00" departLane="SB_in_2" departPos="78.32" departSpeed="13.89" departDelay="0.30" arrival="47.00" arrivalLane="EB_out_2" arrivalPos="236.40" arrivalSpeed="13.86" duration="38.00" routeLength="418.99" waitingTime="0.00" waitingCount="0" stopTime="0.00" timeLoss="6.77" rerouteNo="0" devices="tripinfo_flow_SB_R.1 routing_flow_SB_R.1" vType="default" speedFactor="1.17" vaporized=""/>
    <tripinfo id="flow_SB_T.12" depart="23.00" departLane="SB_in_1" departPos="230.92" departSpeed="4.99" departDelay="0.64" arrival="47.00" arrivalLane="SB_out_1" arrivalPos="236.40" arrivalSpeed="12.80" duration="24.00" routeLength="269.08" waitingTime="0.00" waitingCount="0" stopTime="0.00" timeLoss="3.27" rerouteNo="0" devices="tripinfo_flow_SB_T.12 routing_flow_SB_T.12" vType="default" speedFactor="0.97" vaporized=""/>
    <tripinfo id="flow_NB_T.8" depart="15.00" departLane="NB_in_1" departPos="116.44" departSpeed="12.51" departDelay="0.71" arrival="48.00" arrivalLane="NB_out_1" arrivalPos="236.40" arrivalSpeed="11.71" duration="33.00" routeLength="383.56" waitingTime="0.00" waitingCount="0" stopTime="0.00" timeLoss="2.30" rerouteNo="0" devices="tripinfo_flow_NB_T.8 routing_flow_NB_T.8" vType="default" speedFactor="0.90" vaporized=""/>
    <tripinfo id="flow_SB_T.8" depart="15.00" departLane="SB_in_2" departPos="137.13" departSpeed="11.04" departDelay="0.10" arrival="49.00" arrivalLane="SB_out_1" arrivalPos="236.40" arrivalSpeed="11.83" duration="34.00" routeLength="362.87" waitingTime="0.00" waitingCount="0" stopTime="0.00" timeLoss="3.56" rerouteNo="0" devices="tripinfo_flow_SB_T.8 routing_flow_SB_T.8" vType="default" speedFactor="0.88" vaporized=""/>
    <tripinfo id="flow_NB_T.4" depart="8.00" departLane="NB_in_1" departPos="7.66" departSpeed="12.74" departDelay="0.86" arrival="50.00" arrivalLane="NB_out_1" arrivalPos="236.40" arrivalSpeed="11.79" duration="42.00" routeLength="492.34" waitingTime="0.00" waitingCount="0" stopTime="0.00" timeLoss="3.28" rerouteNo="0" devices="tripinfo_flow_NB_T.4 routing_flow_NB_T.4" vType="default" speedFactor="0.92" vaporized=""/>
    <tripinfo id="flow_NB_L.1" depart="9.00" departLane="NB_in_0" departPos="37.61" departSpeed="12.94" departDelay="0.67" arrival="50.00" arrivalLane="EB_out_0" arrivalPos="236.40" arrivalSpeed="11.67" duration="41.00" routeLength="444.22" waitingTime="0.00" waitingCount="0" stopTime="0.00" timeLoss="5.98" rerouteNo="0" devices="tripinfo_flow_NB_L.1 routing_flow_NB_L.1" vType="default" speedFactor="0.93" vaporized=""/>
    <tripinfo id="flow_NB_T.2" depart="4.00" departLane="NB_in_0" departPos="14.24" departSpeed="12.20" departDelay="0.43" arrival="51.00" arrivalLane="NB_out_0" arrivalPos="236.40" arrivalSpeed="11.91" duration="47.00" routeLength="485.76" waitingTime="1.00" waitingCount="1" stopTime="0.00" timeLoss="7.07" rerouteNo="0" devices="tripinfo_flow_NB_T.2 routing_flow_NB_T.2" vType="default" speedFactor="0.88" vaporized=""/>
    <tripinfo id="flow_NB_T.7" depart="13.00" departLane="NB_in_0" departPos="57.06" departSpeed="13.29" departDelay="0.50" arrival="51.00" arrivalLane="NB_out_2" arrivalPos="236.40" arrivalSpeed="13.26" duration="38.00" routeLength="442.94" waitingTime="0.00" waitingCount="0" stopTime="0.00" timeLoss="4.64" rerouteNo="0" devices="tripinfo_flow_NB_T.7 routing_flow_NB_T.7" vType="default" speedFactor="0.96" vaporized=""/>
    <tripinfo id="flow_SB_T.11" depart="21.00" departLane="SB_in_1" departPos="160.44" departSpeed="12.60" departDelay="0.51" arrival="51.00" arrivalLane="SB_out_1" arrivalPos="236.40" arrivalSpeed="11.53" duration="30.00" routeLength="339.56" waitingTime="0.00" waitingCount="0" stopTime="0.00" timeLoss="2.16" rerouteNo="0" devices="tripinfo_flow_SB_T.11 routing_flow_SB_T.11" vType="default" speedFactor="0.91" vaporized=""/>
    <tripinfo id="flow_SB_T.6" depart="12.00" departLane="SB_in_0" departPos="39.70" departSpeed="11.56" departDelay="0.82" arrival="52.00" arrivalLane="SB_out_0" arrivalPos="236.40" arrivalSpeed="12.23" duration="40.00" routeLength="460.30" waitingTime="0.00" waitingCount="0" stopTime="0.00" timeLoss="2.25" rerouteNo="0" devices="tripinfo_flow_SB_T.6 routing_flow_SB_T.6" vType="default" speedFactor="0.90" vaporized=""/>
    <tripinfo id="flow_NB_L.3" depart="25.00" departLane="NB_in_0" departPos="168.02" departSpeed="13.89" departDelay="0.00" arrival="52.00" arrivalLane="EB_out_0" arrivalPos="236.40" arrivalSpeed="12.74" duration="27.00" routeLength="313.81" waitingTime="0.00" waitingCount="0" stopTime="0.00" timeLoss="3.75" rerouteNo="0" devices="tripinfo_flow_NB_L.3 routing_flow_NB_L.3" vType="default" speedFactor="1.03" vaporized=""/>
    <tripinfo id="flow_NB_T.11" depart="20.00" departLane="NB_in_1" departPos="83.18" departSpeed="13.71" departDelay="0.35" arrival="53.00" arrivalLane="NB_out_1" arrivalPos="236.40" arrivalSpeed="13.25" duration="33.00" routeLength="416.82" waitingTime="0.00" waitingCount="0" stopTime="0.00" timeLoss="2.05" rerouteNo="0" devices="tripinfo_flow_NB_T.11 routing_flow_NB_T.11" vType="default" speedFactor="0.99" vaporized=""/>
    <tripinfo id="flow_NB_R.1" depart="9.00" departLane="NB_in_2" departPos="7.05" departSpeed="13.89" departDelay="0.67" arrival="54.00" arrivalLane="WB_out_2" arrivalPos="236.40" arrivalSpeed="13.12" duration="45.00" routeLength="490.26" waitingTime="1.00" waitingCount="1" stopTime="0.00" timeLoss="8.69" rerouteNo="0" devices="tripinfo_flow_NB_R.1 routing_flow_NB_R.1" vType="default" speedFactor="1.15" vaporized=""/>
    <tripinfo id="flow_NB_L.2" depart="17.00" departLane="NB_in_0" departPos="35.89" departSpeed="13.89" departDelay="0.33" arrival="55.00" arrivalLane="EB_out_0" arrivalPos="236.40" arrivalSpeed="13.16" duration="38.00" routeLength="445.94" waitingTime="0.00" waitingCount="0" stopTime="0.00" timeLoss="4.35" rerouteNo="0" devices="tripinfo_flow_NB_L.2 routing_flow_NB_L.2" vType="default" speedFactor="1.02" vaporized=""/>
    <tripinfo id="flow_SB_L.2" depart="18.00" departLane="SB_in_0" departPos="48.98" departSpeed="13.47" departDelay="0.61" arrival="55.00" arrivalLane="WB_out_0" arrivalPos="236.40" arrivalSpeed="12.23" duration="37.00" routeLength="432.85" waitingTime="0.00" waitingCount="0" stopTime="0.00" timeLoss="3.45" rerouteNo="0" devices="tripinfo_flow_SB_L.2 routing_flow_SB_L.2" vType="default" speedFactor="0.97" vaporized=""/>
    <tripinfo id="flow_NB_T.15" depart="27.00" departLane="NB_in_1" departPos="165.36" departSpeed="9.71" departDelay="0.21" arrival="55.00" arrivalLane="NB_out_1" arrivalPos="236.40" arrivalSpeed="12.66" duration="28.00" routeLength="334.64" waitingTime="0.00" waitingCount="0" stopTime="0.00" timeLoss="3.11" rerouteNo="0" devices="tripinfo_flow_NB_T.15 routing_flow_NB_T.15" vType="default" speedFactor="1.00" vaporized=""/>
    <tripinfo id="flow_NB_T.9" depart="17.00" departLane="NB_in_1" departPos="6.58" departSpeed="13.89" departDelay="0.93" arrival="56.00" arrivalLane="NB_out_1" arrivalPos="236.40" arrivalSpeed="13.80" duration="39.00" routeLength="493.42" waitingTime="0.00" waitingCount="0" stopTime="0.00" timeLoss="3.40" rerouteNo="0" devices="tripinfo_flow_NB_T.9 routing_flow_NB_T.9" vType="default" speedFactor="1.10" vaporized=""/>
    <tripinfo id="flow_SB_T.15" depart="28.00" departLane="SB_in_1" departPos="168.62" departSpeed="13.89" departDelay="0.06" arrival="56.00" arrivalLane="SB_out_1" arrivalPos="236.40" arrivalSpeed="13.38" duration="28.00" routeLength="331.38" waitingTime="0.00" waitingCount="0" stopTime="0.00" timeLoss="3.97" rerouteNo="0" devices="tripinfo_flow_SB_T.15 routing_flow_SB_T.15" vType="default" speedFactor="1.04" vaporized=""/>
    <tripinfo id="flow_SB_T.18" depart="34.00" departLane="SB_in_0" departPos="223.35" departSpeed="8.78" departDelay="0.47" arrival="56.00" arrivalLane="SB_out_0" arrivalPos="236.40" arrivalSpeed="13.21" duration="22.00" routeLength="276.65" waitingTime="0.00" waitingCount="0" stopTime="0.00" timeLoss="1.78" rerouteNo="0" devices="tripinfo_flow_SB_T.18 routing_flow_SB_T.18" vType="default" speedFactor="1.01" vaporized=""/>
    <tripinfo id="flow_NB_T.13" depart="24.00" departLane="NB_in_0" departPos="71.57" departSpeed="13.89" departDelay="0.78" arrival="57.00" arrivalLane="NB_out_0" arrivalPos="236.40" arrivalSpeed="13.86" duration="33.00" routeLength="428.43" waitingTime="0.00" waitingCount="0" stopTime="0.00" timeLoss="1.83" rerouteNo="0" devices="tripinfo_flow_NB_T.13 routing_flow_NB_T.13" vType="default" speedFactor="1.06" vaporized=""/>
    <tripinfo id="flow_SB_T.10" depart="19.00" departLane="SB_in_1" departPos="18.91" departSpeed="13.89" departDelay="0.37" arrival="58.00" arrivalLane="SB_out_1" arrivalPos="236.40" arrivalSpeed="13.58" duration="39.00" routeLength="481.09" waitingTime="0.00" waitingCount="0" stopTime="0.00" timeLoss="4.06" rerouteNo="0" devices="tripinfo_flow_SB_T.10 routing_flow_SB_T.10" vType="default" speedFactor="1.02" vaporized=""/>
    <tripinfo id="flow_NB_T.14" depart="26.00" departLane="NB_in_1" departPos="97.18" departSpeed="13.89" departDelay="1.00" arrival="58.00" arrivalLane="NB_out_1" arrivalPos="236.40" arrivalSpeed="12.91" duration="32.00" routeLength="402.82" waitingTime="0.00" waitingCount="0" stopTime="0.00" timeLoss="2.79" rerouteNo="0" devices="tripinfo_flow_NB_T.14 routing_flow_NB_T.14" vType="default" speedFactor="1.09" vaporized=""/>
    <tripinfo id="flow_NB_T.16" depart="29.00" departLane="NB_in_0" departPos="113.48" departSpeed="13.89" departDelay="0.42" arrival="59.00" arrivalLane="NB_out_0" arrivalPos="236.40" arrivalSpeed="12.87" duration="30.00" routeLength="386.52" waitingTime="0.00" waitingCount="0" stopTime="0.00" timeLoss="1.63" rerouteNo="0" devices="tripinfo_flow_NB_T.16 routing_flow_NB_T.16" vType="default" speedFactor="1.02" vaporized=""/>
    <tripinfo id="flow_SB_T.14" depart="27.00" departLane="SB_in_1" departPos="110.24" departSpeed="11.82" departDelay="0.92" arrival="60.00" arrivalLane="SB_out_0" arrivalPos="236.40" arrivalSpeed="12.40" duration="33.00" routeLength="389.76" waitingTime="0.00" waitingCount="0" stopTime="0.00" timeLoss="3.97" rerouteNo="0" devices="tripinfo_flow_SB_T.14 routing_flow_SB_T.14" vType="default" speedFactor="0.97" vaporized=""/>
    <tripinfo id="flow_SB_R.3" depart="27.00" departLane="SB_in_2" departPos="184.63" departSpeed="13.89" departDelay="0.91" arrival="62.00" arrivalLane="EB_out_2" arrivalPos="236.40" arrivalSpeed="13.08" duration="35.00" routeLength="312.68" waitingTime="6.00" waitingCount="1" stopTime="0.00" timeLoss="12.10" rerouteNo="0" devices="tripinfo_flow_SB_R.3 routing_flow_SB_R.3" vType="default" speedFactor="1.15" vaporized=""/>
    <tripinfo id="flow_NB_R.3" depart="25.00" departLane="NB_in_2" departPos="206.57" departSpeed="11.56" departDelay="0.00" arrival="65.00" arrivalLane="WB_out_2" arrivalPos="236.40" arrivalSpeed="13.18" duration="40.00" routeLength="290.74" waitingTime="5.00" waitingCount="2" stopTime="0.00" timeLoss="17.42" rerouteNo="0" devices="tripinfo_flow_NB_R.3 routing_flow_NB_R.3" vType="default" speedFactor="0.98" vaporized=""/>
    <tripinfo id="flow_WB_R.0" depart="0.00" departLane="WB_in_0" departPos="159.10" departSpeed="13.89" departDelay="0.00" arrival="67.00" arrivalLane="NB_out_0" arrivalPos="236.40" arrivalSpeed="13.12" duration="67.00" routeLength="322.73" waitingTime="37.00" waitingCount="1" stopTime="0.00" timeLoss="42.74" rerouteNo="0" devices="tripinfo_flow_WB_R.0 routing_flow_WB_R.0" vType="default" speedFactor="1.03" vaporized=""/>
    <tripinfo id="flow_EB_R.0" depart="0.00" departLane="EB_in_0" departPos="128.90" departSpeed="13.03" departDelay="0.00" arrival="68.00" arrivalLane="SB_out_0" arrivalPos="236.40" arrivalSpeed="12.73" duration="68.00" routeLength="352.93" waitingTime="35.00" waitingCount="1" stopTime="0.00" timeLoss="40.25" rerouteNo="0" devices="tripinfo_flow_EB_R.0 routing_flow_EB_R.0" vType="default" speedFactor="0.94" vaporized=""/>
    <tripinfo id="flow_WB_T.1" depart="2.00" departLane="WB_in_1" departPos="133.87" departSpeed="13.77" departDelay="0.52" arrival="69.00" arrivalLane="WB_out_0" arrivalPos="236.40" arrivalSpeed="13.29" duration="67.00" routeLength="366.13" waitingTime="34.00" waitingCount="1" stopTime="0.00" timeLoss="39.57" rerouteNo="0" devices="tripinfo_flow_WB_T.1 routing_flow_WB_T.1" vType="default" speedFactor="0.99" vaporized=""/>
    <tripinfo id="flow_EB_T.1" depart="4.00" departLane="EB_in_1" departPos="161.60" departSpeed="13.00" departDelay="0.70" arrival="69.00" arrivalLane="EB_out_0" arrivalPos="236.40" arrivalSpeed="12.33" duration="65.00" routeLength="338.40" waitingTime="34.00" waitingCount="1" stopTime="0.00" timeLoss="38.74" rerouteNo="0" devices="tripinfo_flow_EB_T.1 routing_flow_EB_T.1" vType="default" speedFactor="0.94" vaporized=""/>
    <tripinfo id="flow_WB_T.5" depart="8.00" departLane="WB_in_1" departPos="180.73" departSpeed="13.89" departDelay="0.61" arrival="70.00" arrivalLane="WB_out_1" arrivalPos="236.40" arrivalSpeed="13.71" duration="62.00" routeLength="319.27" waitingTime="33.00" waitingCount="1" stopTime="0.00" timeLoss="38.59" rerouteNo="0" devices="tripinfo_flow_WB_T.5 routing_flow_WB_T.5" vType="default" speedFactor="1.13" vaporized=""/>
    <tripinfo id="flow_WB_T.4" depart="6.00" departLane="WB_in_0" departPos="221.99" departSpeed="3.76" departDelay="0.09" arrival="71.00" arrivalLane="WB_out_0" arrivalPos="236.40" arrivalSpeed="13.36" duration="65.00" routeLength="278.01" waitingTime="36.00" waitingCount="1" stopTime="0.00" timeLoss="44.12" rerouteNo="0" devices="tripinfo_flow_WB_T.4 routing_flow_WB_T.4" vType="default" speedFactor="0.97" vaporized=""/>
    <tripinfo id="flow_EB_T.2" depart="7.00" departLane="EB_in_1" departPos="93.75" departSpeed="12.36" departDelay="0.41" arrival="72.00" arrivalLane="EB_out_1" arrivalPos="236.40" arrivalSpeed="11.58" duration="65.00" routeLength="406.25" waitingTime="25.00" waitingCount="1" stopTime="0.00" timeLoss="31.52" rerouteNo="0" devices="tripinfo_flow_EB_T.2 routing_flow_EB_T.2" vType="default" speedFactor="0.89" vaporized=""/>
    <tripinfo id="flow_EB_R.1" depart="16.00" departLane="EB_in_0" departPos="151.68" departSpeed="13.89" departDelay="0.62" arrival="72.00" arrivalLane="SB_out_0" arrivalPos="236.40" arrivalSpeed="12.60" duration="56.00" routeLength="330.15" waitingTime="24.00" waitingCount="1" stopTime="0.00" timeLoss="31.14" rerouteNo="0" devices="tripinfo_flow_EB_R.1 routing_flow_EB_R.1" vType="default" speedFactor="1.17" vaporized=""/>
    <tripinfo id="flow_EB_T.0" depart="0.00" departLane="EB_in_0" departPos="58.51" departSpeed="12.31" departDelay="0.00" arrival="73.00" arrivalLane="EB_out_0" arrivalPos="236.40" arrivalSpeed="11.09" duration="73.00" routeLength="441.49" waitingTime="29.00" waitingCount="1" stopTime="0.00" timeLoss="36.53" rerouteNo="0" devices="tripinfo_flow_EB_T.0 routing_flow_EB_T.0" vType="default" speedFactor="0.89" vaporized=""/>
    <tripinfo id="flow_WB_T.0" depart="0.00" departLane="WB_in_0" departPos="1.43" departSpeed="13.89" departDelay="0.00" arrival="73.00" arrivalLane="WB_out_0" arrivalPos="236.40" arrivalSpeed="13.58" duration="73.00" routeLength="498.57" waitingTime="29.00" waitingCount="1" stopTime="0.00" timeLoss="36.47" rerouteNo="0" devices="tripinfo_flow_WB_T.0 routing_flow_WB_T.0" vType="default" speedFactor="1.09" vaporized=""/>
    <tripinfo id="flow_EB_T.6" depart="20.00" departLane="EB_in_1" departPos="68.56" departSpeed="13.02" departDelay="0.22" arrival="73.00" arrivalLane="EB_out_2" arrivalPos="236.40" arrivalSpeed="12.86" duration="53.00" routeLength="431.44" waitingTime="12.00" waitingCount="1" stopTime="0.00" timeLoss="19.69" rerouteNo="0" devices="tripinfo_flow_EB_T.6 routing_flow_EB_T.6" vType="default" speedFactor="0.94" vaporized=""/>
    <tripinfo id="flow_WB_T.2" depart="3.00" departLane="WB_in_1" departPos="62.53" departSpeed="12.87" departDelay="0.04" arrival="74.00" arrivalLane="WB_out_1" arrivalPos="236.40" arrivalSpeed="12.68" duration="71.00" routeLength="437.47" waitingTime="29.00" waitingCount="1" stopTime="0.00" timeLoss="36.09" rerouteNo="0" devices="tripinfo_flow_WB_T.2 routing_flow_WB_T.2" vType="default" speedFactor="0.93" vaporized=""/>
    <tripinfo id="flow_EB_T.4" depart="14.00" departLane="EB_in_0" departPos="21.04" departSpeed="13.89" departDelay="0.81" arrival="74.00" arrivalLane="EB_out_0" arrivalPos="236.40" arrivalSpeed="13.71" duration="60.00" routeLength="478.96" waitingTime="17.00" waitingCount="1" stopTime="0.00" timeLoss="25.48" rerouteNo="0" devices="tripinfo_flow_EB_T.4 routing_flow_EB_T.4" vType="default" speedFactor="1.04" vaporized=""/>
    <tripinfo id="flow_WB_T.9" depart="14.00" departLane="WB_in_1" departPos="169.16" departSpeed="13.89" departDelay="0.70" arrival="74.00" arrivalLane="WB_out_2" arrivalPos="236.40" arrivalSpeed="13.80" duration="60.00" routeLength="330.84" waitingTime="27.00" waitingCount="1" stopTime="0.00" timeLoss="35.99" rerouteNo="0" devices="tripinfo_flow_WB_T.9 routing_flow_WB_T.9" vType="default" speedFactor="1.09" vaporized=""/>
    <tripinfo id="flow_WB_T.8" depart="12.00" departLane="WB_in_0" departPos="135.13" departSpeed="13.89" departDelay="0.18" arrival="75.00" arrivalLane="WB_out_0" arrivalPos="236.40" arrivalSpeed="13.14" duration="63.00" routeLength="364.87" waitingTime="27.00" waitingCount="1" stopTime="0.00" timeLoss="35.94" rerouteNo="0" devices="tripinfo_flow_WB_T.8 routing_flow_WB_T.8" vType="default" speedFactor="1.03" vaporized=""/>
    <tripinfo id="flow_EB_T.9" depart="30.00" departLane="EB_in_1" departPos="159.65" departSpeed="12.80" departDelay="0.33" arrival="75.00" arrivalLane="EB_out_1" arrivalPos="236.40" arrivalSpeed="12.63" duration="45.00" routeLength="340.35" waitingTime="11.00" waitingCount="1" stopTime="0.00" timeLoss="18.35" rerouteNo="0" devices="tripinfo_flow_EB_T.9 routing_flow_EB_T.9" vType="default" speedFactor="0.92" vaporized=""/>
    <tripinfo id="flow_WB_T.6" depart="9.00" departLane="WB_in_1" departPos="30.58" departSpeed="13.82" departDelay="0.13" arrival="76.00" arrivalLane="WB_out_1" arrivalPos="236.40" arrivalSpeed="13.65" duration="67.00" routeLength="469.42" waitingTime="24.00" waitingCount="1" stopTime="0.00" timeLoss="32.73" rerouteNo="0" devices="tripinfo_flow_WB_T.6 routing_flow_WB_T.6" vType="default" speedFactor="0.99" vaporized=""/>
    <tripinfo id="flow_EB_T.10" depart="33.00" departLane="EB_in_1" departPos="160.95" departSpeed="13.29" departDelay="0.03" arrival="77.00" arrivalLane="EB_out_1" arrivalPos="236.40" arrivalSpeed="12.20" duration="44.00" routeLength="339.05" waitingTime="10.00" waitingCount="1" stopTime="0.00" timeLoss="18.22" rerouteNo="0" devices="tripinfo_flow_EB_T.10 routing_flow_EB_T.10" vType="default" speedFactor="0.96" vaporized=""/>
    <tripinfo id="flow_EB_T.5" depart="17.00" departLane="EB_in_1" departPos="15.83" departSpeed="12.49" departDelay="0.52" arrival="78.00" arrivalLane="EB_out_0" arrivalPos="236.40" arrivalSpeed="11.22" duration="61.00" routeLength="484.17" waitingTime="14.00" waitingCount="1" stopTime="0.00" timeLoss="22.00" rerouteNo="0" devices="tripinfo_flow_EB_T.5 routing_flow_EB_T.5" vType="default" speedFactor="0.90" vaporized=""/>
    <tripinfo id="flow_WB_R.1" depart="7.00" departLane="WB_in_0" departPos="55.96" departSpeed="12.12" departDelay="0.10" arrival="80.00" arrivalLane="NB_out_0" arrivalPos="236.40" arrivalSpeed="11.06" duration="73.00" routeLength="425.87" waitingTime="26.00" waitingCount="1" stopTime="0.00" timeLoss="36.63" rerouteNo="0" devices="tripinfo_flow_WB_R.1 routing_flow_WB_R.1" vType="default" speedFactor="0.87" vaporized=""/>
    <tripinfo id="flow_WB_R.2" depart="14.00" departLane="WB_in_0" departPos="72.76" departSpeed="13.85" departDelay="0.21" arrival="80.00" arrivalLane="NB_out_1" arrivalPos="236.40" arrivalSpeed="13.63" duration="66.00" routeLength="409.07" waitingTime="24.00" waitingCount="1" stopTime="0.00" timeLoss="35.36" rerouteNo="0" devices="tripinfo_flow_WB_R.2 routing_flow_WB_R.2" vType="default" speedFactor="1.00" vaporized=""/>
    <tripinfo id="flow_EB_T.8" depart="27.00" departLane="EB_in_0" departPos="66.48" departSpeed="13.56" departDelay="0.62" arrival="80.00" arrivalLane="EB_out_0" arrivalPos="236.40" arrivalSpeed="12.72" duration="53.00" routeLength="433.52" waitingTime="10.00" waitingCount="1" stopTime="0.00" timeLoss="20.37" rerouteNo="0" devices="tripinfo_flow_EB_T.8 routing_flow_EB_T.8" vType="default" speedFactor="0.98" vaporized=""/>
    <tripinfo id="flow_EB_T.11" depart="37.00" departLane="EB_in_1" departPos="155.70" departSpeed="12.81" departDelay="0.73" arrival="80.00" arrivalLane="EB_out_1" arrivalPos="236.40" arrivalSpeed="12.12" duration="43.00" routeLength="344.30" waitingTime="7.00" waitingCount="1" stopTime="0.00" timeLoss="15.29" rerouteNo="0" devices="tripinfo_flow_EB_T.11 routing_flow_EB_T.11" vType="default" speedFactor="0.92" vaporized=""/>