<?xml version="1.0" encoding="UTF-8"?>

<!-- generated on 2025-11-12 13:51:01 by Eclipse SUMO sumo Version 1.24.0
<sumoConfiguration xmlns:xsi="http://www.w3.org/2001/XMLSchema-instance" xsi:noNamespaceSchemaLocation="http://sumo.dlr.de/xsd/sumoConfiguration.xsd">

    <input>
        <net-file value="D:\Coding\Signaloptimiser\outputs\intersection_2\sumo_network_webster.net.xml"/>
        <route-files value="D:\Coding\Signaloptimiser\outputs\intersection_2\routes_webster.rou.xml"/>
        <additional-files value="D:\Coding\Signaloptimiser\outputs\intersection_2\webster_traffic_lights.add.xml"/>
    </input>

    <output>
        <summary-output value="D:\Coding\Signaloptimiser\outputs\intersection_2\sumo_output_Webster.xml"/>
        <tripinfo-output value="D:\Coding\Signaloptimiser\outputs\intersection_2\tripinfo_Webster.xml"/>
    </output>

    <time>
        <begin value="0"/>
        <end value="3600"/>
    </time>

    <processing>
        <collision.action value="none"/>
        <time-to-teleport value="-1"/>
        <max-depart-delay value="-1"/>
    </processing>

    <report>
        <no-warnings value="true"/>
        <no-step-log value="true"/>
    </report>

</sumoConfiguration>
-->

<tripinfos xmlns:xsi="http://www.w3.org/2001/XMLSchema-instance" xsi:noNamespaceSchemaLocation="http://sumo.dlr.de/xsd/tripinfo_file.xsd">
    <tripinfo id="flow_NB_L.0" depart="0.00" departLane="NB_in_2" departPos="210.63" departSpeed="13.09" departDelay="0.00" arrival="24.00" arrivalLane="WB_out_2" arrivalPos="236.40" arrivalSpeed="13.49" duration="24.00" routeLength="286.68" waitingTime="0.00" waitingCount="0" stopTime="0.00" timeLoss="2.35" rerouteNo="0" devices="tripinfo_flow_NB_L.0 routing_flow_NB_L.0" vType="default" speedFactor="1.06" vaporized=""/>
    <tripinfo id="flow_NB_T.0" depart="0.00" departLane="NB_in_0" departPos="168.43" departSpeed="13.03" departDelay="0.00" arrival="27.00" arrivalLane="NB_out_0" arrivalPos="236.40" arrivalSpeed="12.05" duration="27.00" routeLength="331.57" waitingTime="0.00" waitingCount="0" stopTime="0.00" timeLoss="1.32" rerouteNo="0" devices="tripinfo_flow_NB_T.0 routing_flow_NB_T.0" vType="default" speedFactor="0.94" vaporized=""/>
    <tripinfo id="flow_SB_T.0" depart="0.00" departLane="SB_in_0" departPos="139.47" departSpeed="13.89" departDelay="0.00" arrival="28.00" arrivalLane="SB_out_0" arrivalPos="236.40" arrivalSpeed="12.59" duration="28.00" routeLength="360.53" waitingTime="0.00" waitingCount="0" stopTime="0.00" timeLoss="1.45" rerouteNo="0" devices="tripinfo_flow_SB_T.0 routing_flow_SB_T.0" vType="default" speedFactor="1.03" vaporized=""/>
    <tripinfo id="flow_NB_T.1" depart="2.00" departLane="NB_in_1" departPos="159.10" departSpeed="13.89" departDelay="0.21" arrival="28.00" arrivalLane="NB_out_1" arrivalPos="236.40" arrivalSpeed="12.70" duration="26.00" routeLength="340.90" waitingTime="0.00" waitingCount="0" stopTime="0.00" timeLoss="1.15" rerouteNo="0" devices="tripinfo_flow_NB_T.1 routing_flow_NB_T.1" vType="default" speedFactor="1.03" vaporized=""/>
    <tripinfo id="flow_SB_L.0" depart="0.00" departLane="SB_in_2" departPos="116.18" departSpeed="13.89" departDelay="0.00" arrival="31.00" arrivalLane="EB_out_2" arrivalPos="236.40" arrivalSpeed="12.98" duration="31.00" routeLength="381.13" waitingTime="0.00" waitingCount="0" stopTime="0.00" timeLoss="2.51" rerouteNo="0" devices="tripinfo_flow_SB_L.0 routing_flow_SB_L.0" vType="default" speedFactor="1.08" vaporized=""/>
    <tripinfo id="flow_SB_T.1" depart="2.00" departLane="SB_in_1" departPos="110.20" departSpeed="13.89" departDelay="0.14" arrival="32.00" arrivalLane="SB_out_0" arrivalPos="236.40" arrivalSpeed="13.62" duration="30.00" routeLength="389.80" waitingTime="0.00" waitingCount="0" stopTime="0.00" timeLoss="1.12" rerouteNo="0" devices="tripinfo_flow_SB_T.1 routing_flow_SB_T.1" vType="default" speedFactor="1.05" vaporized=""/>
    <tripinfo id="flow_NB_T.3" depart="6.00" departLane="NB_in_0" departPos="121.27" departSpeed="13.89" departDelay="0.64" arrival="35.00" arrivalLane="NB_out_0" arrivalPos="236.40" arrivalSpeed="13.07" duration="29.00" routeLength="378.73" waitingTime="0.00" waitingCount="0" stopTime="0.00" timeLoss="1.63" rerouteNo="0" devices="tripinfo_flow_NB_T.3 routing_flow_NB_T.3" vType="default" speedFactor="1.02" vaporized=""/>
    <tripinfo id="flow_NB_R.0" depart="0.00" departLane="NB_in_0" departPos="10.75" departSpeed="13.89" departDelay="0.00" arrival="39.00" arrivalLane="EB_out_0" arrivalPos="236.40" arrivalSpeed="13.21" duration="39.00" routeLength="471.08" waitingTime="0.00" waitingCount="0" stopTime="0.00" timeLoss="3.60" rerouteNo="0" devices="tripinfo_flow_NB_R.0 routing_flow_NB_R.0" vType="default" speedFactor="1.01" vaporized=""/>
    <tripinfo id="flow_SB_T.4" depart="8.00" departLane="SB_in_0" departPos="128.68" departSpeed="12.74" departDelay="0.55" arrival="39.00" arrivalLane="SB_out_0" arrivalPos="236.40" arrivalSpeed="11.75" duration="31.00" routeLength="371.32" waitingTime="0.00" waitingCount="0" stopTime="0.00" timeLoss="1.54" rerouteNo="0" devices="tripinfo_flow_SB_T.4 routing_flow_SB_T.4" vType="default" speedFactor="0.92" vaporized=""/>
    <tripinfo id="flow_NB_T.10" depart="18.00" departLane="NB_in_2" departPos="234.57" departSpeed="13.89" departDelay="0.14" arrival="39.00" arrivalLane="NB_out_2" arrivalPos="236.40" arrivalSpeed="13.71" duration="21.00" routeLength="265.43" waitingTime="0.00" waitingCount="0" stopTime="0.00" timeLoss="0.93" rerouteNo="0" devices="tripinfo_flow_NB_T.10 routing_flow_NB_T.10" vType="default" speedFactor="1.02" vaporized=""/>
    <tripinfo id="flow_NB_T.2" depart="4.00" departLane="NB_in_2" departPos="62.53" departSpeed="12.87" departDelay="0.43" arrival="40.00" arrivalLane="NB_out_1" arrivalPos="236.40" arrivalSpeed="12.28" duration="36.00" routeLength="437.47" waitingTime="0.00" waitingCount="0" stopTime="0.00" timeLoss="1.91" rerouteNo="0" devices="tripinfo_flow_NB_T.2 routing_flow_NB_T.2" vType="default" speedFactor="0.93" vaporized=""/>
    <tripinfo id="flow_NB_T.7" depart="13.00" departLane="NB_in_2" departPos="135.13" departSpeed="13.89" departDelay="0.50" arrival="41.00" arrivalLane="NB_out_2" arrivalPos="236.40" arrivalSpeed="13.42" duration="28.00" routeLength="364.87" waitingTime="0.00" waitingCount="0" stopTime="0.00" timeLoss="1.32" rerouteNo="0" devices="tripinfo_flow_NB_T.7 routing_flow_NB_T.7" vType="default" speedFactor="1.03" vaporized=""/>
    <tripinfo id="flow_NB_T.8" depart="15.00" departLane="NB_in_0" departPos="163.50" departSpeed="13.89" departDelay="0.71" arrival="42.00" arrivalLane="NB_out_0" arrivalPos="236.40" arrivalSpeed="13.57" duration="27.00" routeLength="336.50" waitingTime="0.00" waitingCount="0" stopTime="0.00" timeLoss="1.84" rerouteNo="0" devices="tripinfo_flow_NB_T.8 routing_flow_NB_T.8" vType="default" speedFactor="1.09" vaporized=""/>
    <tripinfo id="flow_NB_T.6" depart="11.00" departLane="NB_in_1" departPos="97.24" departSpeed="13.52" departDelay="0.28" arrival="43.00" arrivalLane="NB_out_2" arrivalPos="236.40" arrivalSpeed="12.44" duration="32.00" routeLength="402.76" waitingTime="0.00" waitingCount="0" stopTime="0.00" timeLoss="1.96" rerouteNo="0" devices="tripinfo_flow_NB_T.6 routing_flow_NB_T.6" vType="default" speedFactor="0.97" vaporized=""/>
    <tripinfo id="flow_SB_T.8" depart="15.00" departLane="SB_in_2" departPos="226.93" departSpeed="5.40" departDelay="0.10" arrival="43.00" arrivalLane="SB_out_1" arrivalPos="236.40" arrivalSpeed="13.67" duration="28.00" routeLength="273.07" waitingTime="1.00" waitingCount="1" stopTime="0.00" timeLoss="7.59" rerouteNo="0" devices="tripinfo_flow_SB_T.8 routing_flow_SB_T.8" vType="default" speedFactor="1.00" vaporized=""/>
    <tripinfo id="flow_NB_T.4" depart="8.00" departLane="NB_in_1" departPos="93.75" departSpeed="12.12" departDelay="0.86" arrival="44.00" arrivalLane="NB_out_0" arrivalPos="236.40" arrivalSpeed="12.10" duration="36.00" routeLength="406.25" waitingTime="0.00" waitingCount="0" stopTime="0.00" timeLoss="1.85" rerouteNo="0" devices="tripinfo_flow_NB_T.4 routing_flow_NB_T.4" vType="default" speedFactor="0.87" vaporized=""/>
    <tripinfo id="flow_NB_R.1" depart="9.00" departLane="NB_in_0" departPos="71.34" departSpeed="12.94" departDelay="0.67" arrival="45.00" arrivalLane="EB_out_0" arrivalPos="236.40" arrivalSpeed="12.33" duration="36.00" routeLength="410.49" waitingTime="0.00" waitingCount="0" stopTime="0.00" timeLoss="3.75" rerouteNo="0" devices="tripinfo_flow_NB_R.1 routing_flow_NB_R.1" vType="default" speedFactor="0.93" vaporized=""/>
    <tripinfo id="flow_SB_R.1" depart="9.00" departLane="SB_in_0" departPos="37.61" departSpeed="13.89" departDelay="0.30" arrival="46.00" arrivalLane="WB_out_1" arrivalPos="236.40" arrivalSpeed="13.66" duration="37.00" routeLength="444.22" waitingTime="0.00" waitingCount="0" stopTime="0.00" timeLoss="3.94" rerouteNo="0" devices="tripinfo_flow_SB_R.1 routing_flow_SB_R.1" vType="default" speedFactor="1.15" vaporized=""/>
    <tripinfo id="flow_SB_R.0" depart="0.00" departLane="SB_in_0" departPos="10.31" departSpeed="11.54" departDelay="0.00" arrival="47.00" arrivalLane="WB_out_0" arrivalPos="236.40" arrivalSpeed="11.26" duration="47.00" routeLength="471.52" waitingTime="0.00" waitingCount="0" stopTime="0.00" timeLoss="4.52" rerouteNo="0" devices="tripinfo_flow_SB_R.0 routing_flow_SB_R.0" vType="default" speedFactor="0.83" vaporized=""/>
    <tripinfo id="flow_SB_T.2" depart="4.00" departLane="SB_in_1" departPos="14.24" departSpeed="12.20" departDelay="0.27" arrival="47.00" arrivalLane="SB_out_0" arrivalPos="236.40" arrivalSpeed="11.79" duration="43.00" routeLength="485.76" waitingTime="0.00" waitingCount="0" stopTime="0.00" timeLoss="2.75" rerouteNo="0" devices="tripinfo_flow_SB_T.2 routing_flow_SB_T.2" vType="default" speedFactor="0.88" vaporized=""/>
    <tripinfo id="flow_SB_T.5" depart="10.00" departLane="SB_in_1" departPos="30.58" departSpeed="13.82" departDelay="0.69" arrival="47.00" arrivalLane="SB_out_1" arrivalPos="236.40" arrivalSpeed="12.91" duration="37.00" routeLength="469.42" waitingTime="0.00" waitingCount="0" stopTime="0.00" timeLoss="2.74" rerouteNo="0" devices="tripinfo_flow_SB_T.5 routing_flow_SB_T.5" vType="default" speedFactor="0.99" vaporized=""/>
    <tripinfo id="flow_NB_T.11" depart="20.00" departLane="NB_in_1" departPos="170.65" departSpeed="13.02" departDelay="0.35" arrival="47.00" arrivalLane="NB_out_1" arrivalPos="236.40" arrivalSpeed="11.99" duration="27.00" routeLength="329.35" waitingTime="0.00" waitingCount="0" stopTime="0.00" timeLoss="1.51" rerouteNo="0" devices="tripinfo_flow_NB_T.11 routing_flow_NB_T.11" vType="default" speedFactor="0.94" vaporized=""/>
    <tripinfo id="flow_NB_T.13" depart="24.00" departLane="NB_in_0" departPos="206.98" departSpeed="13.89" departDelay="0.78" arrival="47.00" arrivalLane="NB_out_0" arrivalPos="236.40" arrivalSpeed="13.34" duration="23.00" routeLength="293.02" waitingTime="0.00" waitingCount="0" stopTime="0.00" timeLoss="1.00" rerouteNo="0" devices="tripinfo_flow_NB_T.13 routing_flow_NB_T.13" vType="default" speedFactor="1.06" vaporized=""/>
    <tripinfo id="flow_NB_T.5" depart="9.00" departLane="NB_in_1" departPos="7.66" departSpeed="13.89" departDelay="0.07" arrival="48.00" arrivalLane="NB_out_2" arrivalPos="236.40" arrivalSpeed="13.23" duration="39.00" routeLength="492.34" waitingTime="0.00" waitingCount="0" stopTime="0.00" timeLoss="2.84" rerouteNo="0" devices="tripinfo_flow_NB_T.5 routing_flow_NB_T.5" vType="default" speedFactor="1.13" vaporized=""/>
    <tripinfo id="flow_SB_T.9" depart="17.00" departLane="SB_in_0" departPos="129.26" departSpeed="10.39" departDelay="0.23" arrival="49.00" arrivalLane="SB_out_0" arrivalPos="236.40" arrivalSpeed="12.80" duration="32.00" routeLength="370.74" waitingTime="0.00" waitingCount="0" stopTime="0.00" timeLoss="4.66" rerouteNo="0" devices="tripinfo_flow_SB_T.9 routing_flow_SB_T.9" vType="default" speedFactor="1.00" vaporized=""/>
    <tripinfo id="flow_SB_T.6" depart="12.00" departLane="SB_in_1" departPos="39.70" departSpeed="11.93" departDelay="0.82" arrival="51.00" arrivalLane="SB_out_0" arrivalPos="236.40" arrivalSpeed="11.92" duration="39.00" routeLength="460.30" waitingTime="0.00" waitingCount="0" stopTime="0.00" timeLoss="2.20" rerouteNo="0" devices="tripinfo_flow_SB_T.6 routing_flow_SB_T.6" vType="default" speedFactor="0.90" vaporized=""/>
    <tripinfo id="flow_NB_R.2" depart="17.00" departLane="NB_in_0" departPos="65.92" departSpeed="13.89" departDelay="0.33" arrival="51.00" arrivalLane="EB_out_0" arrivalPos="236.40" arrivalSpeed="13.07" duration="34.00" routeLength="415.91" waitingTime="0.00" waitingCount="0" stopTime="0.00" timeLoss="3.03" rerouteNo="0" devices="tripinfo_flow_NB_R.2 routing_flow_NB_R.2" vType="default" speedFactor="1.10" vaporized=""/>
    <tripinfo id="flow_SB_R.2" depart="18.00" departLane="SB_in_0" departPos="80.14" departSpeed="13.89" departDelay="0.61" arrival="51.00" arrivalLane="WB_out_0" arrivalPos="236.40" arrivalSpeed="12.85" duration="33.00" routeLength="401.69" waitingTime="0.00" waitingCount="0" stopTime="0.00" timeLoss="3.14" rerouteNo="0" devices="tripinfo_flow_SB_R.2 routing_flow_SB_R.2" vType="default" speedFactor="1.08" vaporized=""/>
    <tripinfo id="flow_SB_T.13" depart="25.00" departLane="SB_in_1" departPos="168.02" departSpeed="13.64" departDelay="0.78" arrival="52.00" arrivalLane="SB_out_1" arrivalPos="236.40" arrivalSpeed="12.39" duration="27.00" routeLength="331.98" waitingTime="0.00" waitingCount="0" stopTime="0.00" timeLoss="1.85" rerouteNo="0" devices="tripinfo_flow_SB_T.13 routing_flow_SB_T.13" vType="default" speedFactor="0.98" vaporized=""/>
    <tripinfo id="flow_NB_T.14" depart="26.00" departLane="NB_in_1" departPos="165.36" departSpeed="13.89" departDelay="1.00" arrival="52.00" arrivalLane="NB_out_1" arrivalPos="236.40" arrivalSpeed="12.89" duration="26.00" routeLength="334.64" waitingTime="0.00" waitingCount="0" stopTime="0.00" timeLoss="1.18" rerouteNo="0" devices="tripinfo_flow_NB_T.14 routing_flow_NB_T.14" vType="default" speedFactor="1.03" vaporized=""/>
    <tripinfo id="flow_SB_T.12" depart="23.00" departLane="SB_in_0" departPos="121.23" departSpeed="13.89" departDelay="0.64" arrival="53.00" arrivalLane="SB_out_0" arrivalPos="236.40" arrivalSpeed="13.31" duration="30.00" routeLength="378.77" waitingTime="0.00" waitingCount="0" stopTime="0.00" timeLoss="2.50" rerouteNo="0" devices="tripinfo_flow_SB_T.12 routing_flow_SB_T.12" vType="default" speedFactor="1.02" vaporized=""/>
    <tripinfo id="flow_SB_T.3" depart="6.00" departLane="SB_in_2" departPos="72.59" departSpeed="13.89" departDelay="0.41" arrival="55.00" arrivalLane="SB_out_1" arrivalPos="236.40" arrivalSpeed="13.69" duration="49.00" routeLength="427.41" waitingTime="8.00" waitingCount="1" stopTime="0.00" timeLoss="17.83" rerouteNo="0" devices="tripinfo_flow_SB_T.3 routing_flow_SB_T.3" vType="default" speedFactor="1.01" vaporized=""/>
    <tripinfo id="flow_NB_T.9" depart="17.00" departLane="NB_in_0" departPos="6.58" departSpeed="13.89" departDelay="0.93" arrival="55.00" arrivalLane="NB_out_0" arrivalPos="236.40" arrivalSpeed="13.82" duration="38.00" routeLength="493.42" waitingTime="0.00" waitingCount="0" stopTime="0.00" timeLoss="1.77" rerouteNo="0" devices="tripinfo_flow_NB_T.9 routing_flow_NB_T.9" vType="default" speedFactor="1.02" vaporized=""/>
    <tripinfo id="flow_NB_T.16" depart="29.00" departLane="NB_in_1" departPos="159.65" departSpeed="13.89" departDelay="0.42" arrival="55.00" arrivalLane="NB_out_1" arrivalPos="236.40" arrivalSpeed="13.31" duration="26.00" routeLength="340.35" waitingTime="0.00" waitingCount="0" stopTime="0.00" timeLoss="1.33" rerouteNo="0" devices="tripinfo_flow_NB_T.16 routing_flow_NB_T.16" vType="default" speedFactor="1.02" vaporized=""/>
    <tripinfo id="flow_SB_T.14" depart="27.00" departLane="SB_in_0" departPos="156.45" departSpeed="12.11" departDelay="0.92" arrival="56.00" arrivalLane="SB_out_0" arrivalPos="236.40" arrivalSpeed="12.46" duration="29.00" routeLength="343.55" waitingTime="0.00" waitingCount="0" stopTime="0.00" timeLoss="2.64" rerouteNo="0" devices="tripinfo_flow_SB_T.14 routing_flow_SB_T.14" vType="default" speedFactor="0.97" vaporized=""/>
    <tripinfo id="flow_SB_T.7" depart="14.00" departLane="SB_in_2" departPos="169.16" departSpeed="9.33" departDelay="0.96" arrival="57.00" arrivalLane="SB_out_1" arrivalPos="236.40" arrivalSpeed="13.72" duration="43.00" routeLength="330.84" waitingTime="7.00" waitingCount="1" stopTime="0.00" timeLoss="18.78" rerouteNo="0" devices="tripinfo_flow_SB_T.7 routing_flow_SB_T.7" vType="default" speedFactor="1.04" vaporized=""/>
    <tripinfo id="flow_NB_T.12" depart="22.00" departLane="NB_in_2" departPos="92.14" departSpeed="10.06" departDelay="0.57" arrival="57.00" arrivalLane="NB_out_1" arrivalPos="236.40" arrivalSpeed="13.37" duration="35.00" routeLength="407.86" waitingTime="0.00" waitingCount="0" stopTime="0.00" timeLoss="5.63" rerouteNo="0" devices="tripinfo_flow_NB_T.12 routing_flow_NB_T.12" vType="default" speedFactor="1.02" vaporized=""/>
    <tripinfo id="flow_SB_T.18" depart="34.00" departLane="SB_in_0" departPos="217.16" departSpeed="7.54" departDelay="0.47" arrival="57.00" arrivalLane="SB_out_0" arrivalPos="236.40" arrivalSpeed="13.33" duration="23.00" routeLength="282.84" waitingTime="0.00" waitingCount="0" stopTime="0.00" timeLoss="2.50" rerouteNo="0" devices="tripinfo_flow_SB_T.18 routing_flow_SB_T.18" vType="default" speedFactor="1.07" vaporized=""/>
    <tripinfo id="flow_NB_R.3" depart="25.00" departLane="NB_in_0" departPos="100.49" departSpeed="10.76" departDelay="0.00" arrival="58.00" arrivalLane="EB_out_0" arrivalPos="236.40" arrivalSpeed="13.04" duration="33.00" routeLength="381.34" waitingTime="0.00" waitingCount="0" stopTime="0.00" timeLoss="3.97" rerouteNo="0" devices="tripinfo_flow_NB_R.3 routing_flow_NB_R.3" vType="default" speedFactor="1.03" vaporized=""/>
    <tripinfo id="flow_SB_T.11" depart="21.00" departLane="SB_in_1" departPos="68.56" departSpeed="12.60" departDelay="0.51" arrival="60.00" arrivalLane="SB_out_0" arrivalPos="236.40" arrivalSpeed="11.73" duration="39.00" routeLength="431.44" waitingTime="0.00" waitingCount="0" stopTime="0.00" timeLoss="4.68" rerouteNo="0" devices="tripinfo_flow_SB_T.11 routing_flow_SB_T.11" vType="default" speedFactor="0.91" vaporized=""/>
    <tripinfo id="flow_NB_T.17" depart="31.00" departLane="NB_in_0" departPos="139.26" departSpeed="13.89" departDelay="0.64" arrival="60.00" arrivalLane="NB_out_0" arrivalPos="236.40" arrivalSpeed="13.86" duration="29.00" routeLength="360.74" waitingTime="0.00" waitingCount="0" stopTime="0.00" timeLoss="2.44" rerouteNo="0" devices="tripinfo_flow_NB_T.17 routing_flow_NB_T.17" vType="default" speedFactor="1.09" vaporized=""/>
    <tripinfo id="flow_SB_R.3" depart="27.00" departLane="SB_in_0" departPos="66.48" departSpeed="13.89" departDelay="0.91" arrival="61.00" arrivalLane="WB_out_0" arrivalPos="236.40" arrivalSpeed="12.78" duration="34.00" routeLength="415.35" waitingTime="0.00" waitingCount="0" stopTime="0.00" timeLoss="2.94" rerouteNo="0" devices="tripinfo_flow_SB_R.3 routing_flow_SB_R.3" vType="default" speedFactor="1.15" vaporized=""/>
    <tripinfo id="flow_NB_T.20" depart="36.00" departLane="NB_in_1" departPos="221.31" departSpeed="4.55" departDelay="0.28" arrival="61.00" arrivalLane="NB_out_1" arrivalPos="236.40" arrivalSpeed="11.96" duration="25.00" routeLength="278.69" waitingTime="0.00" waitingCount="0" stopTime="0.00" timeLoss="3.26" rerouteNo="0" devices="tripinfo_flow_NB_T.20 routing_flow_NB_T.20" vType="default" speedFactor="0.93" vaporized=""/>
    <tripinfo id="flow_SB_T.16" depart="30.00" departLane="SB_in_1" departPos="156.80" departSpeed="11.58" departDelay="0.19" arrival="64.00" arrivalLane="SB_out_0" arrivalPos="236.40" arrivalSpeed="10.45" duration="34.00" routeLength="343.20" waitingTime="0.00" waitingCount="0" stopTime="0.00" timeLoss="4.30" rerouteNo="0" devices="tripinfo_flow_SB_T.16 routing_flow_SB_T.16" vType="default" speedFactor="0.83" vaporized=""/>
    <tripinfo id="flow_NB_L.1" depart="9.00" departLane="NB_in_2" departPos="55.96" departSpeed="13.18" departDelay="0.67" arrival="65.00" arrivalLane="WB_out_2" arrivalPos="236.40" arrivalSpeed="12.97" duration="56.00" routeLength="441.35" waitingTime="16.00" waitingCount="1" stopTime="0.00" timeLoss="21.53" rerouteNo="0" devices="tripinfo_flow_NB_L.1 routing_flow_NB_L.1" vType="default" speedFactor="0.95" vaporized=""/>
    <tripinfo id="flow_SB_L.1" depart="9.00" departLane="SB_in_2" departPos="180.73" departSpeed="13.89" departDelay="0.30" arrival="65.00" arrivalLane="EB_out_2" arrivalPos="236.40" arrivalSpeed="13.07" duration="56.00" routeLength="316.58" waitingTime="26.00" waitingCount="1" stopTime="0.00" timeLoss="32.20" rerouteNo="0" devices="tripinfo_flow_SB_L.1 routing_flow_SB_L.1" vType="default" speedFactor="1.18" vaporized=""/>
    <tripinfo id="flow_EB_L.0" depart="0.00" departLane="EB_in_2" departPos="175.71" departSpeed="13.89" departDelay="0.00" arrival="68.00" arrivalLane="NB_out_2" arrivalPos="236.40" arrivalSpeed="13.87" duration="68.00" routeLength="321.60" waitingTime="39.00" waitingCount="1" stopTime="0.00" timeLoss="44.26" rerouteNo="0" devices="tripinfo_flow_EB_L.0 routing_flow_EB_L.0" vType="default" speedFactor="1.05" vaporized=""/>
    <tripinfo id="flow_EB_R.0" depart="0.00" departLane="EB_in_0" departPos="128.90" departSpeed="13.03" departDelay="0.00" arrival="68.00" arrivalLane="SB_out_0" arrivalPos="236.40" arrivalSpeed="12.43" duration="68.00" routeLength="352.93" waitingTime="35.00" waitingCount="1" stopTime="0.00" timeLoss="40.20" rerouteNo="0" devices="tripinfo_flow_EB_R.0 routing_flow_EB_R.0" vType="default" speedFactor="0.94" vaporized=""/>
    <tripinfo id="flow_EB_T.1" depart="4.00" departLane="EB_in_1" departPos="206.99" departSpeed="13.08" departDelay="0.70" arrival="69.00" arrivalLane="EB_out_0" arrivalPos="236.40" arrivalSpeed="12.41" duration="65.00" routeLength="293.01" waitingTime="36.00" waitingCount="1" stopTime="0.00" timeLoss="42.30" rerouteNo="0" devices="tripinfo_flow_EB_T.1 routing_flow_EB_T.1" vType="default" speedFactor="0.94" vaporized=""/>
    <tripinfo id="flow_EB_T.2" depart="7.00" departLane="EB_in_1" departPos="149.75" departSpeed="13.54" departDelay="0.41" arrival="70.00" arrivalLane="EB_out_1" arrivalPos="236.40" arrivalSpeed="12.48" duration="63.00" routeLength="350.25" waitingTime="31.00" waitingCount="1" stopTime="0.00" timeLoss="37.10" rerouteNo="0" devices="tripinfo_flow_EB_T.2 routing_flow_EB_T.2" vType="default" speedFactor="0.97" vaporized=""/>
    <tripinfo id="flow_WB_R.1" depart="3.00" departLane="WB_in_0" departPos="133.87" departSpeed="13.77" departDelay="0.93" arrival="71.00" arrivalLane="NB_out_1" arrivalPos="236.40" arrivalSpeed="13.27" duration="68.00" routeLength="347.96" waitingTime="33.00" waitingCount="1" stopTime="0.00" timeLoss="40.94" rerouteNo="0" devices="tripinfo_flow_WB_R.1 routing_flow_WB_R.1" vType="default" speedFactor="0.99" vaporized=""/>
    <tripinfo id="flow_WB_R.3" depart="7.00" departLane="WB_in_0" departPos="209.83" departSpeed="11.47" departDelay="0.79" arrival="71.00" arrivalLane="NB_out_0" arrivalPos="236.40" arrivalSpeed="11.25" duration="64.00" routeLength="272.00" waitingTime="34.00" waitingCount="1" stopTime="0.00" timeLoss="38.71" rerouteNo="0" devices="tripinfo_flow_WB_R.3 routing_flow_WB_R.3" vType="default" speedFactor="0.83" vaporized=""/>
    <tripinfo id="flow_EB_T.0" depart="0.00" departLane="EB_in_0" departPos="58.51" departSpeed="12.31" departDelay="0.00" arrival="72.00" arrivalLane="EB_out_0" arrivalPos="236.40" arrivalSpeed="11.65" duration="72.00" routeLength="441.49" waitingTime="29.00" waitingCount="1" stopTime="0.00" timeLoss="35.96" rerouteNo="0" devices="tripinfo_flow_EB_T.0 routing_flow_EB_T.0" vType="default" speedFactor="0.89" vaporized=""/>
    <tripinfo id="flow_WB_R.4" depart="9.00" departLane="WB_in_0" departPos="161.95" departSpeed="13.89" departDelay="0.72" arrival="72.00" arrivalLane="NB_out_0" arrivalPos="236.40" arrivalSpeed="13.20" duration="63.00" routeLength="319.88" waitingTime="31.00" waitingCount="1" stopTime="0.00" timeLoss="39.51" rerouteNo="0" devices="tripinfo_flow_WB_R.4 routing_flow_WB_R.4" vType="default" speedFactor="1.17" vaporized=""/>
    <tripinfo id="flow_EB_T.3" depart="10.00" departLane="EB_in_2" departPos="29.64" departSpeed="13.89" departDelay="0.11" arrival="72.00" arrivalLane="EB_out_2" arrivalPos="236.40" arrivalSpeed="13.81" duration="62.00" routeLength="470.36" waitingTime="21.00" waitingCount="1" stopTime="0.00" timeLoss="27.50" rerouteNo="0" devices="tripinfo_flow_EB_T.3 routing_flow_EB_T.3" vType="default" speedFactor="1.02" vaporized=""/>
    <tripinfo id="flow_EB_T.5" depart="17.00" departLane="EB_in_1" departPos="219.40" departSpeed="0.99" departDelay="0.52" arrival="72.00" arrivalLane="EB_out_1" arrivalPos="236.40" arrivalSpeed="13.37" duration="55.00" routeLength="280.60" waitingTime="29.00" waitingCount="1" stopTime="0.00" timeLoss="34.35" rerouteNo="0" devices="tripinfo_flow_EB_T.5 routing_flow_EB_T.5" vType="default" speedFactor="1.00" vaporized=""/>
    <tripinfo id="flow_WB_R.0" depart="0.00" departLane="WB_in_0" departPos="1.43" departSpeed="13.89" departDelay="0.00" arrival="74.00" arrivalLane="NB_out_0" arrivalPos="236.40" arrivalSpeed="13.65" duration="74.00" routeLength="480.40" waitingTime="29.00" waitingCount="1" stopTime="0.00" timeLoss="38.59" rerouteNo="0" devices="tripinfo_flow_WB_R.0 routing_flow_WB_R.0" vType="default" speedFactor="1.09" vaporized=""/>
    <tripinfo id="flow_EB_T.4" depart="14.00" departLane="EB_in_0" departPos="140.95" departSpeed="13.89" departDelay="0.81" arrival="74.00" arrivalLane="EB_out_0" arrivalPos="236.40" arrivalSpeed="13.27" duration="60.00" routeLength="359.05" waitingTime="25.00" waitingCount="1" stopTime="0.00" timeLoss="33.68" rerouteNo="0" devices="tripinfo_flow_EB_T.4 routing_flow_EB_T.4" vType="default" speedFactor="1.04" vaporized=""/>
    <tripinfo id="flow_EB_L.1" depart="16.00" departLane="EB_in_2" departPos="225.74" departSpeed="2.16" departDelay="0.62" arrival="74.00" arrivalLane="NB_out_1" arrivalPos="236.40" arrivalSpeed="11.35" duration="58.00" routeLength="271.57" waitingTime="27.00" waitingCount="1" stopTime="0.00" timeLoss="33.71" rerouteNo="0" devices="tripinfo_flow_EB_L.1 routing_flow_EB_L.1" vType="default" speedFactor="0.85" vaporized=""/>
    <tripinfo id="flow_EB_T.7" depart="24.00" departLane="EB_in_2" departPos="147.80" departSpeed="13.27" departDelay="0.92" arrival="75.00" arrivalLane="EB_out_2" arrivalPos="236.40" arrivalSpeed="12.26" duration="51.00" routeLength="352.20" waitingTime="16.00" waitingCount="1" stopTime="0.00" timeLoss="23.63" rerouteNo="0" devices="tripinfo_flow_EB_T.7 routing_flow_EB_T.7" vType="default" speedFactor="0.96" vaporized=""/>
    <tripinfo id="flow_EB_T.6" depart="20.00" departLane="EB_in_1" departPos="83.18" departSpeed="12.26" departDelay="0.22" arrival="76.00" arrivalLane="EB_out_1" arrivalPos="236.40" arrivalSpeed="12.07" duration="56.00" routeLength="416.82" waitingTime="14.00" waitingCount="1" stopTime="0.00" timeLoss="21.93" rerouteNo="0" devices="tripinfo_flow_EB_T.6 routing_flow_EB_T.6" vType="default" speedFactor="0.88" vaporized=""/>
    <tripinfo id="flow_WB_R.6" depart="13.00" departLane="WB_in_0" departPos="157.94" departSpeed="11.47" departDelay="0.59" arrival="77.00" arrivalLane="NB_out_0" arrivalPos="236.40" arrivalSpeed="12.94" duration="64.00" routeLength="323.89" waitingTime="29.00" waitingCount="1" stopTime="0.00" timeLoss="39.01" rerouteNo="0" devices="tripinfo_flow_WB_R.6 routing_flow_WB_R.6" vType="default" speedFactor="1.09" vaporized=""/>
    <tripinfo id="flow_EB_R.1" depart="16.00" departLane="EB_in_0" departPos="43.35" departSpeed="11.87" departDelay="0.62" arrival="78.00" arrivalLane="SB_out_0" arrivalPos="236.40" arrivalSpeed="11.32" duration="62.00" routeLength="438.48" waitingTime="14.00" waitingCount="1" stopTime="0.00" timeLoss="23.89" rerouteNo="0" devices="tripinfo_flow_EB_R.1 routing_flow_EB_R.1" vType="default" speedFactor="0.85" vaporized=""/>
    <tripinfo id="flow_EB_T.9" depart="30.00" departLane="EB_in_1" departPos="101.85" departSpeed="12.80" departDelay="0.33" arrival="78.00" arrivalLane="EB_out_2" arrivalPos="236.40" arrivalSpeed="12.24" duration="48.00" routeLength="398.15" waitingTime="9.00" waitingCount="1" stopTime="0.00" timeLoss="16.27" rerouteNo="0" devices="tripinfo_flow_EB_T.9 routing_flow_EB_T.9" vType="default" speedFactor="0.92" vaporized=""/>
    <tripinfo id="flow_EB_R.2" depart="31.00" departLane="EB_in_0" departPos="160.95" departSpeed="13.89" departDelay="0.23" arrival="78.00" arrivalLane="SB_out_1" arrivalPos="236.40" arrivalSpeed="12.99" duration="47.00" routeLength="320.88" waitingTime="12.00" waitingCount="1" stopTime="0.00" timeLoss="22.72" rerouteNo="0" devices="tripinfo_flow_EB_R.2 routing_flow_EB_R.2" vType="default" speedFactor="1.01" vaporized=""/>
    <tripinfo id="flow_EB_T.10" depart="33.00" departLane="EB_in_1" departPos="188.64" departSpeed="10.04" departDelay="0.03" arrival="78.00" arrivalLane="EB_out_1" arrivalPos="236.40" arrivalSpeed="13.13" duration="45.00" routeLength="311.36" waitingTime="13.00" waitingCount="1" stopTime="0.00" timeLoss="21.26" rerouteNo="0" devices="tripinfo_flow_EB_T.10 routing_flow_EB_T.10" vType="default" speedFactor="0.96" vaporized=""/>
    <tripinfo id="flow_WB_R.2" depart="5.00" departLane="WB_in_0" departPos="10.92" departSpeed="13.89" departDelay="0.86" arrival="79.00" arrivalLane="NB_out_0" arrivalPos="236.40" arrivalSpeed="13.17" duration="74.00" routeLength="470.91" waitingTime="26.00" waitingCount="1" stopTime="0.00" timeLoss="39.08" rerouteNo="0" devices="tripinfo_flow_WB_R.2 routing_flow_WB_R.2" vType="default" speedFactor="1.16" vaporized=""/>