<?xml version="1.0" encoding="UTF-8"?>

<!-- generated on 2025-11-12 13:49:32 by Eclipse SUMO sumo Version 1.24.0
<sumoConfiguration xmlns:xsi="http://www.w3.org/2001/XMLSchema-instance" xsi:noNamespaceSchemaLocation="http://sumo.dlr.de/xsd/sumoConfiguration.xsd">

    <input>
        <net-file value="D:\Coding\Signaloptimiser\outputs\intersection_1\sumo_network_webster.net.xml"/>
        <route-files value="D:\Coding\Signaloptimiser\outputs\intersection_1\routes_webster.rou.xml"/>
        <additional-files value="D:\Coding\Signaloptimiser\outputs\intersection_1\webster_traffic_lights.add.xml"/>
    </input>

    <output>
        <summary-output value="D:\Coding\Signaloptimiser\outputs\intersection_1\sumo_output_Webster.xml"/>
        <tripinfo-output value="D:\Coding\Signaloptimiser\outputs\intersection_1\tripinfo_Webster.xml"/>
    </output>

    <time>
        <begin value="0"/>
        <end value="3600"/>
    </time>

    <processing>
        <collision.action value="none"/>
        <time-to-teleport value="-1"/>
        <max-depart-delay value="-1"/>
    </processing>

    <report>
        <no-warnings value="true"/>
        <no-step-log value="true"/>
    </report>

</sumoConfiguration>
-->

<tripinfos xmlns:xsi="http://www.w3.org/2001/XMLSchema-instance" xsi:noNamespaceSchemaLocation="http://sumo.dlr.de/xsd/tripinfo_file.xsd">
    <tripinfo id="flow_NB_L.0" depart="0.00" departLane="NB_in_2" departPos="219.19" departSpeed="13.44" departDelay="0.00" arrival="24.00" arrivalLane="WB_out_2" arrivalPos="236.40" arrivalSpeed="13.27" duration="24.00" routeLength="280.70" waitingTime="0.00" waitingCount="0" stopTime="0.00" timeLoss="2.49" rerouteNo="0" devices="tripinfo_flow_NB_L.0 routing_flow_NB_L.0" vType="default" speedFactor="1.06" vaporized=""/>
    <tripinfo id="flow_NB_T.1" depart="2.00" departLane="NB_in_1" departPos="182.84" departSpeed="13.89" departDelay="0.48" arrival="26.00" arrivalLane="NB_out_1" arrivalPos="236.40" arrivalSpeed="12.93" duration="24.00" routeLength="317.16" waitingTime="0.00" waitingCount="0" stopTime="0.00" timeLoss="1.04" rerouteNo="0" devices="tripinfo_flow_NB_T.1 routing_flow_NB_T.1" vType="default" speedFactor="1.05" vaporized=""/>
    <tripinfo id="flow_NB_T.0" depart="0.00" departLane="NB_in_0" departPos="175.27" departSpeed="13.03" departDelay="0.00" arrival="27.00" arrivalLane="NB_out_0" arrivalPos="236.40" arrivalSpeed="12.69" duration="27.00" routeLength="324.73" waitingTime="0.00" waitingCount="0" stopTime="0.00" timeLoss="1.41" rerouteNo="0" devices="tripinfo_flow_NB_T.0 routing_flow_NB_T.0" vType="default" speedFactor="0.94" vaporized=""/>
    <tripinfo id="flow_SB_T.2" depart="4.00" departLane="SB_in_2" departPos="159.10" departSpeed="13.89" departDelay="0.83" arrival="30.00" arrivalLane="SB_out_1" arrivalPos="246.00" arrivalSpeed="13.45" duration="26.00" routeLength="340.90" waitingTime="0.00" waitingCount="0" stopTime="0.00" timeLoss="1.00" rerouteNo="0" devices="tripinfo_flow_SB_T.2 routing_flow_SB_T.2" vType="default" speedFactor="1.03" vaporized=""/>
    <tripinfo id="flow_SB_R.0" depart="0.00" departLane="SB_in_0" departPos="116.18" departSpeed="13.89" departDelay="0.00" arrival="31.00" arrivalLane="WB_out_0" arrivalPos="236.40" arrivalSpeed="13.74" duration="31.00" routeLength="365.65" waitingTime="0.00" waitingCount="0" stopTime="0.00" timeLoss="3.03" rerouteNo="0" devices="tripinfo_flow_SB_R.0 routing_flow_SB_R.0" vType="default" speedFactor="1.08" vaporized=""/>
    <tripinfo id="flow_NB_T.4" depart="7.00" departLane="NB_in_1" departPos="215.39" departSpeed="12.20" departDelay="0.93" arrival="32.00" arrivalLane="NB_out_0" arrivalPos="236.40" arrivalSpeed="11.94" duration="25.00" routeLength="284.61" waitingTime="0.00" waitingCount="0" stopTime="0.00" timeLoss="1.29" rerouteNo="0" devices="tripinfo_flow_NB_T.4 routing_flow_NB_T.4" vType="default" speedFactor="0.88" vaporized=""/>
    <tripinfo id="flow_SB_T.3" depart="5.00" departLane="SB_in_1" departPos="133.87" departSpeed="13.89" departDelay="0.25" arrival="33.00" arrivalLane="SB_out_1" arrivalPos="246.00" arrivalSpeed="13.74" duration="28.00" routeLength="366.13" waitingTime="0.00" waitingCount="0" stopTime="0.00" timeLoss="1.13" rerouteNo="0" devices="tripinfo_flow_SB_T.3 routing_flow_SB_T.3" vType="default" speedFactor="1.12" vaporized=""/>
    <tripinfo id="flow_NB_T.3" depart="5.00" departLane="NB_in_0" departPos="114.68" departSpeed="13.89" departDelay="0.45" arrival="34.00" arrivalLane="NB_out_0" arrivalPos="236.40" arrivalSpeed="13.33" duration="29.00" routeLength="385.32" waitingTime="0.00" waitingCount="0" stopTime="0.00" timeLoss="1.15" rerouteNo="0" devices="tripinfo_flow_NB_T.3 routing_flow_NB_T.3" vType="default" speedFactor="1.05" vaporized=""/>
    <tripinfo id="flow_NB_T.7" depart="11.00" departLane="NB_in_1" departPos="188.07" departSpeed="13.89" departDelay="0.37" arrival="35.00" arrivalLane="NB_out_1" arrivalPos="236.40" arrivalSpeed="13.37" duration="24.00" routeLength="311.93" waitingTime="0.00" waitingCount="0" stopTime="0.00" timeLoss="1.24" rerouteNo="0" devices="tripinfo_flow_NB_T.7 routing_flow_NB_T.7" vType="default" speedFactor="1.13" vaporized=""/>
    <tripinfo id="flow_SB_T.5" depart="8.00" departLane="SB_in_0" departPos="149.75" departSpeed="13.54" departDelay="0.08" arrival="36.00" arrivalLane="SB_out_1" arrivalPos="246.00" arrivalSpeed="13.44" duration="28.00" routeLength="350.25" waitingTime="0.00" waitingCount="0" stopTime="0.00" timeLoss="1.22" rerouteNo="0" devices="tripinfo_flow_SB_T.5 routing_flow_SB_T.5" vType="default" speedFactor="0.97" vaporized=""/>
    <tripinfo id="flow_SB_R.1" depart="8.00" departLane="SB_in_0" departPos="194.87" departSpeed="12.36" departDelay="0.61" arrival="36.00" arrivalLane="WB_out_0" arrivalPos="236.40" arrivalSpeed="11.57" duration="28.00" routeLength="286.96" waitingTime="0.00" waitingCount="0" stopTime="0.00" timeLoss="3.56" rerouteNo="0" devices="tripinfo_flow_SB_R.1 routing_flow_SB_R.1" vType="default" speedFactor="0.89" vaporized=""/>
    <tripinfo id="flow_NB_T.10" depart="16.00" departLane="NB_in_0" departPos="234.91" departSpeed="13.89" departDelay="0.82" arrival="37.00" arrivalLane="NB_out_0" arrivalPos="236.40" arrivalSpeed="13.43" duration="21.00" routeLength="265.09" waitingTime="0.00" waitingCount="0" stopTime="0.00" timeLoss="0.96" rerouteNo="0" devices="tripinfo_flow_NB_T.10 routing_flow_NB_T.10" vType="default" speedFactor="1.09" vaporized=""/>
    <tripinfo id="flow_SB_T.0" depart="0.00" departLane="SB_in_0" departPos="10.75" departSpeed="13.89" departDelay="0.00" arrival="38.00" arrivalLane="SB_out_0" arrivalPos="246.00" arrivalSpeed="13.57" duration="38.00" routeLength="489.25" waitingTime="0.00" waitingCount="0" stopTime="0.00" timeLoss="1.86" rerouteNo="0" devices="tripinfo_flow_SB_T.0 routing_flow_SB_T.0" vType="default" speedFactor="1.01" vaporized=""/>
    <tripinfo id="flow_NB_T.8" depart="13.00" departLane="NB_in_0" departPos="168.53" departSpeed="13.89" departDelay="0.86" arrival="39.00" arrivalLane="NB_out_0" arrivalPos="236.40" arrivalSpeed="13.53" duration="26.00" routeLength="331.47" waitingTime="0.00" waitingCount="0" stopTime="0.00" timeLoss="1.33" rerouteNo="0" devices="tripinfo_flow_NB_T.8 routing_flow_NB_T.8" vType="default" speedFactor="1.01" vaporized=""/>
    <tripinfo id="flow_SB_T.1" depart="2.00" departLane="SB_in_1" departPos="58.51" departSpeed="12.31" departDelay="0.42" arrival="40.00" arrivalLane="SB_out_0" arrivalPos="246.00" arrivalSpeed="12.12" duration="38.00" routeLength="441.49" waitingTime="0.00" waitingCount="0" stopTime="0.00" timeLoss="1.88" rerouteNo="0" devices="tripinfo_flow_SB_T.1 routing_flow_SB_T.1" vType="default" speedFactor="0.89" vaporized=""/>
    <tripinfo id="flow_NB_T.5" depart="8.00" departLane="NB_in_0" departPos="75.54" departSpeed="13.89" departDelay="0.41" arrival="41.00" arrivalLane="NB_out_0" arrivalPos="236.40" arrivalSpeed="13.07" duration="33.00" routeLength="424.46" waitingTime="0.00" waitingCount="0" stopTime="0.00" timeLoss="1.64" rerouteNo="0" devices="tripinfo_flow_NB_T.5 routing_flow_NB_T.5" vType="default" speedFactor="1.01" vaporized=""/>
    <tripinfo id="flow_NB_T.2" depart="4.00" departLane="NB_in_2" departPos="1.48" departSpeed="13.89" departDelay="0.96" arrival="42.00" arrivalLane="NB_out_1" arrivalPos="236.40" arrivalSpeed="13.44" duration="38.00" routeLength="498.52" waitingTime="0.00" waitingCount="0" stopTime="0.00" timeLoss="1.68" rerouteNo="0" devices="tripinfo_flow_NB_T.2 routing_flow_NB_T.2" vType="default" speedFactor="1.09" vaporized=""/>
    <tripinfo id="flow_SB_T.4" depart="7.00" departLane="SB_in_2" departPos="76.11" departSpeed="13.08" departDelay="0.66" arrival="42.00" arrivalLane="SB_out_2" arrivalPos="246.00" arrivalSpeed="12.96" duration="35.00" routeLength="423.89" waitingTime="0.00" waitingCount="0" stopTime="0.00" timeLoss="1.83" rerouteNo="0" devices="tripinfo_flow_SB_T.4 routing_flow_SB_T.4" vType="default" speedFactor="0.94" vaporized=""/>
    <tripinfo id="flow_SB_T.11" depart="18.00" departLane="SB_in_1" departPos="219.40" departSpeed="12.51" departDelay="0.58" arrival="42.00" arrivalLane="SB_out_1" arrivalPos="246.00" arrivalSpeed="11.87" duration="24.00" routeLength="280.60" waitingTime="0.00" waitingCount="0" stopTime="0.00" timeLoss="1.16" rerouteNo="0" devices="tripinfo_flow_SB_T.11 routing_flow_SB_T.11" vType="default" speedFactor="0.90" vaporized=""/>
    <tripinfo id="flow_SB_T.13" depart="21.00" departLane="SB_in_1" departPos="170.65" departSpeed="13.89" departDelay="0.41" arrival="46.00" arrivalLane="SB_out_1" arrivalPos="246.00" arrivalSpeed="12.95" duration="25.00" routeLength="329.35" waitingTime="0.00" waitingCount="0" stopTime="0.00" timeLoss="1.04" rerouteNo="0" devices="tripinfo_flow_SB_T.13 routing_flow_SB_T.13" vType="default" speedFactor="1.10" vaporized=""/>
    <tripinfo id="flow_NB_T.6" depart="10.00" departLane="NB_in_1" departPos="58.23" departSpeed="12.74" departDelay="0.89" arrival="47.00" arrivalLane="NB_out_0" arrivalPos="236.40" arrivalSpeed="11.96" duration="37.00" routeLength="441.77" waitingTime="0.00" waitingCount="0" stopTime="0.00" timeLoss="2.17" rerouteNo="0" devices="tripinfo_flow_NB_T.6 routing_flow_NB_T.6" vType="default" speedFactor="0.92" vaporized=""/>
    <tripinfo id="flow_SB_R.2" depart="15.00" departLane="SB_in_0" departPos="135.13" departSpeed="12.51" departDelay="0.22" arrival="47.00" arrivalLane="WB_out_0" arrivalPos="236.40" arrivalSpeed="11.62" duration="32.00" routeLength="346.70" waitingTime="0.00" waitingCount="0" stopTime="0.00" timeLoss="3.30" rerouteNo="0" devices="tripinfo_flow_SB_R.2 routing_flow_SB_R.2" vType="default" speedFactor="0.90" vaporized=""/>
    <tripinfo id="flow_SB_T.8" depart="13.00" departLane="SB_in_0" departPos="78.32" departSpeed="13.89" departDelay="0.33" arrival="48.00" arrivalLane="SB_out_0" arrivalPos="246.00" arrivalSpeed="12.92" duration="35.00" routeLength="421.68" waitingTime="0.00" waitingCount="0" stopTime="0.00" timeLoss="4.19" rerouteNo="0" devices="tripinfo_flow_SB_T.8 routing_flow_SB_T.8" vType="default" speedFactor="1.17" vaporized=""/>
    <tripinfo id="flow_NB_T.9" depart="14.00" departLane="NB_in_1" departPos="64.96" departSpeed="13.52" departDelay="0.34" arrival="48.00" arrivalLane="NB_out_1" arrivalPos="236.40" arrivalSpeed="13.17" duration="34.00" routeLength="435.04" waitingTime="0.00" waitingCount="0" stopTime="0.00" timeLoss="1.39" rerouteNo="0" devices="tripinfo_flow_NB_T.9 routing_flow_NB_T.9" vType="default" speedFactor="0.97" vaporized=""/>
    <tripinfo id="flow_SB_T.7" depart="12.00" departLane="SB_in_1" departPos="7.05" departSpeed="13.89" departDelay="0.91" arrival="49.00" arrivalLane="SB_out_1" arrivalPos="246.00" arrivalSpeed="13.76" duration="37.00" routeLength="492.95" waitingTime="0.00" waitingCount="0" stopTime="0.00" timeLoss="1.50" rerouteNo="0" devices="tripinfo_flow_SB_T.7 routing_flow_SB_T.7" vType="default" speedFactor="1.15" vaporized=""/>
    <tripinfo id="flow_NB_T.16" depart="25.00" departLane="NB_in_0" departPos="227.53" departSpeed="9.17" departDelay="0.71" arrival="49.00" arrivalLane="NB_out_0" arrivalPos="236.40" arrivalSpeed="12.91" duration="24.00" routeLength="272.47" waitingTime="0.00" waitingCount="0" stopTime="0.00" timeLoss="2.59" rerouteNo="0" devices="tripinfo_flow_NB_T.16 routing_flow_NB_T.16" vType="default" speedFactor="0.94" vaporized=""/>
    <tripinfo id="flow_SB_T.6" depart="10.00" departLane="SB_in_2" departPos="7.66" departSpeed="13.18" departDelay="0.50" arrival="50.00" arrivalLane="SB_out_1" arrivalPos="246.00" arrivalSpeed="12.95" duration="40.00" routeLength="492.34" waitingTime="0.00" waitingCount="0" stopTime="0.00" timeLoss="1.72" rerouteNo="0" devices="tripinfo_flow_SB_T.6 routing_flow_SB_T.6" vType="default" speedFactor="0.95" vaporized=""/>
    <tripinfo id="flow_SB_R.3" depart="23.00" departLane="SB_in_0" departPos="195.16" departSpeed="10.49" departDelay="0.82" arrival="50.00" arrivalLane="WB_out_0" arrivalPos="236.40" arrivalSpeed="12.66" duration="27.00" routeLength="286.67" waitingTime="0.00" waitingCount="0" stopTime="0.00" timeLoss="5.00" rerouteNo="0" devices="tripinfo_flow_SB_R.3 routing_flow_SB_R.3" vType="default" speedFactor="1.08" vaporized=""/>
    <tripinfo id="flow_SB_T.10" depart="16.00" departLane="SB_in_1" departPos="43.35" departSpeed="11.23" departDelay="0.16" arrival="51.00" arrivalLane="SB_out_2" arrivalPos="246.00" arrivalSpeed="13.81" duration="35.00" routeLength="456.65" waitingTime="0.00" waitingCount="0" stopTime="0.00" timeLoss="1.96" rerouteNo="0" devices="tripinfo_flow_SB_T.10 routing_flow_SB_T.10" vType="default" speedFactor="1.04" vaporized=""/>
    <tripinfo id="flow_NB_T.14" depart="22.00" departLane="NB_in_0" departPos="151.32" departSpeed="13.89" departDelay="0.75" arrival="51.00" arrivalLane="NB_out_0" arrivalPos="236.40" arrivalSpeed="13.02" duration="29.00" routeLength="348.68" waitingTime="0.00" waitingCount="0" stopTime="0.00" timeLoss="3.18" rerouteNo="0" devices="tripinfo_flow_NB_T.14 routing_flow_NB_T.14" vType="default" speedFactor="1.14" vaporized=""/>
    <tripinfo id="flow_SB_T.9" depart="15.00" departLane="SB_in_0" departPos="39.70" departSpeed="13.89" departDelay="0.74" arrival="52.00" arrivalLane="SB_out_0" arrivalPos="246.00" arrivalSpeed="13.34" duration="37.00" routeLength="460.30" waitingTime="0.00" waitingCount="0" stopTime="0.00" timeLoss="3.26" rerouteNo="0" devices="tripinfo_flow_SB_T.9 routing_flow_SB_T.9" vType="default" speedFactor="1.10" vaporized=""/>
    <tripinfo id="flow_SB_T.15" depart="24.00" departLane="SB_in_1" departPos="147.80" departSpeed="12.59" departDelay="0.24" arrival="52.00" arrivalLane="SB_out_1" arrivalPos="246.00" arrivalSpeed="13.19" duration="28.00" routeLength="352.20" waitingTime="0.00" waitingCount="0" stopTime="0.00" timeLoss="1.52" rerouteNo="0" devices="tripinfo_flow_SB_T.15 routing_flow_SB_T.15" vType="default" speedFactor="0.99" vaporized=""/>
    <tripinfo id="flow_NB_T.18" depart="28.00" departLane="NB_in_0" departPos="216.97" departSpeed="10.10" departDelay="0.68" arrival="52.00" arrivalLane="NB_out_1" arrivalPos="236.40" arrivalSpeed="12.21" duration="24.00" routeLength="283.03" waitingTime="0.00" waitingCount="0" stopTime="0.00" timeLoss="1.45" rerouteNo="0" devices="tripinfo_flow_NB_T.18 routing_flow_NB_T.18" vType="default" speedFactor="0.94" vaporized=""/>
    <tripinfo id="flow_NB_T.11" depart="17.00" departLane="NB_in_1" departPos="37.35" departSpeed="13.89" departDelay="0.30" arrival="53.00" arrivalLane="NB_out_0" arrivalPos="236.40" arrivalSpeed="13.47" duration="36.00" routeLength="462.65" waitingTime="0.00" waitingCount="0" stopTime="0.00" timeLoss="2.11" rerouteNo="0" devices="tripinfo_flow_NB_T.11 routing_flow_NB_T.11" vType="default" speedFactor="1.04" vaporized=""/>
    <tripinfo id="flow_SB_T.17" depart="27.00" departLane="SB_in_1" departPos="156.45" departSpeed="13.89" departDelay="0.07" arrival="53.00" arrivalLane="SB_out_1" arrivalPos="246.00" arrivalSpeed="13.80" duration="26.00" routeLength="343.55" waitingTime="0.00" waitingCount="0" stopTime="0.00" timeLoss="1.17" rerouteNo="0" devices="tripinfo_flow_SB_T.17 routing_flow_SB_T.17" vType="default" speedFactor="1.02" vaporized=""/>
    <tripinfo id="flow_SB_T.14" depart="23.00" departLane="SB_in_2" departPos="121.23" departSpeed="9.99" departDelay="0.82" arrival="54.00" arrivalLane="SB_out_2" arrivalPos="246.00" arrivalSpeed="12.18" duration="31.00" routeLength="378.77" waitingTime="0.00" waitingCount="0" stopTime="0.00" timeLoss="2.01" rerouteNo="0" devices="tripinfo_flow_SB_T.14 routing_flow_SB_T.14" vType="default" speedFactor="0.97" vaporized=""/>
    <tripinfo id="flow_NB_T.13" depart="20.00" departLane="NB_in_0" departPos="44.44" departSpeed="13.89" departDelay="0.27" arrival="55.00" arrivalLane="NB_out_0" arrivalPos="236.40" arrivalSpeed="12.62" duration="35.00" routeLength="455.56" waitingTime="0.00" waitingCount="0" stopTime="0.00" timeLoss="1.60" rerouteNo="0" devices="tripinfo_flow_NB_T.13 routing_flow_NB_T.13" vType="default" speedFactor="1.17" vaporized=""/>
    <tripinfo id="flow_NB_T.15" depart="23.00" departLane="NB_in_1" departPos="95.88" departSpeed="13.25" departDelay="0.23" arrival="55.00" arrivalLane="NB_out_1" arrivalPos="236.40" arrivalSpeed="13.58" duration="32.00" routeLength="404.12" waitingTime="0.00" waitingCount="0" stopTime="0.00" timeLoss="2.00" rerouteNo="0" devices="tripinfo_flow_NB_T.15 routing_flow_NB_T.15" vType="default" speedFactor="1.02" vaporized=""/>
    <tripinfo id="flow_SB_T.16" depart="26.00" departLane="SB_in_0" departPos="110.24" departSpeed="13.89" departDelay="0.66" arrival="56.00" arrivalLane="SB_out_0" arrivalPos="246.00" arrivalSpeed="13.72" duration="30.00" routeLength="389.76" waitingTime="0.00" waitingCount="0" stopTime="0.00" timeLoss="1.64" rerouteNo="0" devices="tripinfo_flow_SB_T.16 routing_flow_SB_T.16" vType="default" speedFactor="1.04" vaporized=""/>
    <tripinfo id="flow_SB_T.12" depart="20.00" departLane="SB_in_1" departPos="11.07" departSpeed="13.89" departDelay="0.99" arrival="57.00" arrivalLane="SB_out_1" arrivalPos="246.00" arrivalSpeed="13.29" duration="37.00" routeLength="488.93" waitingTime="0.00" waitingCount="0" stopTime="0.00" timeLoss="1.70" rerouteNo="0" devices="tripinfo_flow_SB_T.12 routing_flow_SB_T.12" vType="default" speedFactor="1.02" vaporized=""/>
    <tripinfo id="flow_NB_T.22" depart="34.00" departLane="NB_in_0" departPos="218.25" departSpeed="10.52" departDelay="0.60" arrival="57.00" arrivalLane="NB_out_1" arrivalPos="236.40" arrivalSpeed="13.54" duration="23.00" routeLength="281.75" waitingTime="0.00" waitingCount="0" stopTime="0.00" timeLoss="1.46" rerouteNo="0" devices="tripinfo_flow_NB_T.22 routing_flow_NB_T.22" vType="default" speedFactor="0.98" vaporized=""/>
    <tripinfo id="flow_SB_R.5" depart="37.00" departLane="SB_in_0" departPos="235.63" departSpeed="6.57" departDelay="0.04" arrival="58.00" arrivalLane="WB_out_0" arrivalPos="236.40" arrivalSpeed="12.77" duration="21.00" routeLength="246.20" waitingTime="0.00" waitingCount="0" stopTime="0.00" timeLoss="2.64" rerouteNo="0" devices="tripinfo_flow_SB_R.5 routing_flow_SB_R.5" vType="default" speedFactor="1.01" vaporized=""/>
    <tripinfo id="flow_NB_T.12" depart="19.00" departLane="NB_in_2" departPos="16.48" departSpeed="12.18" departDelay="0.78" arrival="61.00" arrivalLane="NB_out_0" arrivalPos="236.40" arrivalSpeed="11.00" duration="42.00" routeLength="483.52" waitingTime="0.00" waitingCount="0" stopTime="0.00" timeLoss="2.28" rerouteNo="0" devices="tripinfo_flow_NB_T.12 routing_flow_NB_T.12" vType="default" speedFactor="0.88" vaporized=""/>
    <tripinfo id="flow_NB_L.1" depart="8.00" departLane="NB_in_2" departPos="126.19" departSpeed="13.89" departDelay="0.91" arrival="62.00" arrivalLane="WB_out_2" arrivalPos="236.40" arrivalSpeed="13.57" duration="54.00" routeLength="373.70" waitingTime="19.00" waitingCount="1" stopTime="0.00" timeLoss="25.53" rerouteNo="0" devices="tripinfo_flow_NB_L.1 routing_flow_NB_L.1" vType="default" speedFactor="1.02" vaporized=""/>
    <tripinfo id="flow_WB_L.0" depart="0.00" departLane="WB_in_2" departPos="139.47" departSpeed="13.89" departDelay="0.00" arrival="67.00" arrivalLane="SB_out_1" arrivalPos="246.00" arrivalSpeed="12.75" duration="67.00" routeLength="363.41" waitingTime="34.00" waitingCount="1" stopTime="0.00" timeLoss="39.37" rerouteNo="0" devices="tripinfo_flow_WB_L.0 routing_flow_WB_L.0" vType="default" speedFactor="1.03" vaporized=""/>
    <tripinfo id="flow_WB_R.1" depart="3.00" departLane="WB_in_0" departPos="176.15" departSpeed="11.90" departDelay="0.93" arrival="68.00" arrivalLane="NB_out_0" arrivalPos="236.40" arrivalSpeed="11.56" duration="65.00" routeLength="305.68" waitingTime="33.00" waitingCount="1" stopTime="0.00" timeLoss="38.42" rerouteNo="0" devices="tripinfo_flow_WB_R.1 routing_flow_WB_R.1" vType="default" speedFactor="0.86" vaporized=""/>
    <tripinfo id="flow_WB_R.5" depart="11.00" departLane="WB_in_0" departPos="226.14" departSpeed="1.68" departDelay="0.66" arrival="68.00" arrivalLane="NB_out_1" arrivalPos="236.40" arrivalSpeed="13.33" duration="57.00" routeLength="255.69" waitingTime="30.00" waitingCount="1" stopTime="0.00" timeLoss="37.14" rerouteNo="0" devices="tripinfo_flow_WB_R.5 routing_flow_WB_R.5" vType="default" speedFactor="1.18" vaporized=""/>
    <tripinfo id="flow_WB_L.1" depart="3.00" departLane="WB_in_2" departPos="128.90" departSpeed="13.03" departDelay="0.93" arrival="70.00" arrivalLane="SB_out_1" arrivalPos="246.00" arrivalSpeed="12.34" duration="67.00" routeLength="373.98" waitingTime="31.00" waitingCount="1" stopTime="0.00" timeLoss="36.94" rerouteNo="0" devices="tripinfo_flow_WB_L.1 routing_flow_WB_L.1" vType="default" speedFactor="0.94" vaporized=""/>
    <tripinfo id="flow_WB_L.3" depart="7.00" departLane="WB_in_2" departPos="161.60" departSpeed="11.87" departDelay="0.79" arrival="72.00" arrivalLane="SB_out_1" arrivalPos="246.00" arrivalSpeed="12.59" duration="65.00" routeLength="341.28" waitingTime="30.00" waitingCount="1" stopTime="0.00" timeLoss="37.30" rerouteNo="0" devices="tripinfo_flow_WB_L.3 routing_flow_WB_L.3" vType="default" speedFactor="0.94" vaporized=""/>
    <tripinfo id="flow_WB_R.4" depart="9.00" departLane="WB_in_0" departPos="128.68" departSpeed="12.12" departDelay="0.72" arrival="73.00" arrivalLane="NB_out_0" arrivalPos="236.40" arrivalSpeed="11.88" duration="64.00" routeLength="353.15" waitingTime="25.00" waitingCount="1" stopTime="0.00" timeLoss="33.74" rerouteNo="0" devices="tripinfo_flow_WB_R.4 routing_flow_WB_R.4" vType="default" speedFactor="0.87" vaporized=""/>
    <tripinfo id="flow_WB_L.2" depart="5.00" departLane="WB_in_2" departPos="62.53" departSpeed="13.77" departDelay="0.86" arrival="74.00" arrivalLane="SB_out_1" arrivalPos="246.00" arrivalSpeed="12.69" duration="69.00" routeLength="440.35" waitingTime="27.00" waitingCount="1" stopTime="0.00" timeLoss="35.73" rerouteNo="0" devices="tripinfo_flow_WB_L.2 routing_flow_WB_L.2" vType="default" speedFactor="0.99" vaporized=""/>
    <tripinfo id="flow_WB_R.0" depart="0.00" departLane="WB_in_0" departPos="10.31" departSpeed="11.54" departDelay="0.00" arrival="77.00" arrivalLane="NB_out_0" arrivalPos="236.40" arrivalSpeed="11.30" duration="77.00" routeLength="471.52" waitingTime="25.00" waitingCount="1" stopTime="0.00" timeLoss="34.97" rerouteNo="0" devices="tripinfo_flow_WB_R.0 routing_flow_WB_R.0" vType="default" speedFactor="0.83" vaporized=""/>
    <tripinfo id="flow_WB_L.4" depart="9.00" departLane="WB_in_2" departPos="93.75" departSpeed="11.47" departDelay="0.72" arrival="80.00" arrivalLane="SB_out_0" arrivalPos="246.00" arrivalSpeed="10.35" duration="71.00" routeLength="409.13" waitingTime="26.00" waitingCount="1" stopTime="0.00" timeLoss="33.95" rerouteNo="0" devices="tripinfo_flow_WB_L.4 routing_flow_WB_L.4" vType="default" speedFactor="0.83" vaporized=""/>
    <tripinfo id="flow_WB_L.5" depart="11.00" departLane="WB_in_2" departPos="37.61" departSpeed="12.94" departDelay="0.66" arrival="81.00" arrivalLane="SB_out_1" arrivalPos="246.00" arrivalSpeed="12.20" duration="70.00" routeLength="465.27" waitingTime="22.00" waitingCount="1" stopTime="0.00" timeLoss="32.43" rerouteNo="0" devices="tripinfo_flow_WB_L.5 routing_flow_WB_L.5" vType="default" speedFactor="0.93" vaporized=""/>
    <tripinfo id="flow_SB_R.4" depart="30.00" departLane="SB_in_0" departPos="101.85" departSpeed="13.89" departDelay="0.43" arrival="83.00" arrivalLane="WB_out_0" arrivalPos="236.40" arrivalSpeed="13.79" duration="53.00" routeLength="379.98" waitingTime="19.00" waitingCount="1" stopTime="0.00" timeLoss="24.73" rerouteNo="0" devices="tripinfo_flow_SB_R.4 routing_flow_SB_R.4" vType="default" speedFactor="1.01" vaporized=""/>
    <tripinfo id="flow_NB_T.19" depart="29.00" departLane="NB_in_0" departPos="118.09" departSpeed="13.27" departDelay="0.16" arrival="84.00" arrivalLane="NB_out_0" arrivalPos="236.40" arrivalSpeed="12.70" duration="55.00" routeLength="381.91" waitingTime="19.00" waitingCount="1" stopTime="0.00" timeLoss="26.04" rerouteNo="0" devices="tripinfo_flow_NB_T.19 routing_flow_NB_T.19" vType="default" speedFactor="0.96" vaporized=""/>
    <tripinfo id="flow_SB_T.19" depart="31.00" departLane="SB_in_2" departPos="89.70" departSpeed="13.89" departDelay="0.90" arrival="84.00" arrivalLane="SB_out_1" arrivalPos="246.00" arrivalSpeed="12.75" duration="53.00" routeLength="410.30" waitingTime="17.00" waitingCount="1" stopTime="0.00" timeLoss="23.34" rerouteNo="0" devices="tripinfo_flow_SB_T.19 routing_flow_SB_T.19" vType="default" speedFactor="1.03" vaporized=""/>
    <tripinfo id="flow_NB_T.21" depart="32.00" departLane="NB_in_0" departPos="145.80" departSpeed="9.64" departDelay="0.12" arrival="84.00" arrivalLane="NB_out_1" arrivalPos="236.40" arrivalSpeed="12.82" duration="52.00" routeLength="354.20" waitingTime="19.00" waitingCount="1" stopTime="0.00" timeLoss="26.10" rerouteNo="0" devices="tripinfo_flow_NB_T.21 routing_flow_NB_T.21" vType="default" speedFactor="1.00" vaporized=""/>
    <tripinfo id="flow_SB_T.20" depart="32.00" departLane="SB_in_1" departPos="135.54" departSpeed="13.89" departDelay="0.32" arrival="84.00" arrivalLane="SB_out_0" arrivalPos="246.00" arrivalSpeed="13.14" duration="52.00" routeLength="364.46" waitingTime="18.00" waitingCount="1" stopTime="0.00" timeLoss="25.75" rerouteNo="0" devices="tripinfo_flow_SB_T.20 routing_flow_SB_T.20" vType="default" speedFactor="1.02" vaporized=""/>
    <tripinfo id="flow_SB_T.18" depart="29.00" departLane="SB_in_2" departPos="10.07" departSpeed="13.68" departDelay="0.49" arrival="86.00" arrivalLane="SB_out_2" arrivalPos="246.00" arrivalSpeed="13.02" duration="57.00" routeLength="489.93" waitingTime="15.00" waitingCount="1" stopTime="0.00" timeLoss="21.05" rerouteNo="0" devices="tripinfo_flow_SB_T.18 routing_flow_SB_T.18" vType="default" speedFactor="0.98" vaporized=""/>
    <tripinfo id="flow_NB_T.20" depart="31.00" departLane="NB_in_0" departPos="68.21" departSpeed="13.89" departDelay="0.64" arrival="86.00" arrivalLane="NB_out_0" arrivalPos="236.40" arrivalSpeed="13.64" duration="55.00" routeLength="431.79" waitingTime="17.00" waitingCount="1" stopTime="0.00" timeLoss="23.37" rerouteNo="0" devices="tripinfo_flow_NB_T.20 routing_flow_NB_T.20" vType="default" speedFactor="1.09" vaporized=""/>
    <tripinfo id="flow_SB_T.22" depart="35.00" departLane="SB_in_1" departPos="80.11" departSpeed="13.89" departDelay="0.15" arrival="86.00" arrivalLane="SB_out_1" arrivalPos="246.00" arrivalSpeed="12.84" duration="51.00" routeLength="419.89" waitingTime="13.00" waitingCount="1" stopTime="0.00" timeLoss="20.60" rerouteNo="0" devices="tripinfo_flow_SB_T.22 routing_flow_SB_T.22" vType="default" speedFactor="1.02" vaporized=""/>
    <tripinfo id="flow_NB_T.17" depart="26.00" departLane="NB_in_1" departPos="24.98" departSpeed="12.70" departDelay="0.19" arrival="87.00" arrivalLane="NB_out_0" arrivalPos="236.40" arrivalSpeed="11.52" duration="61.00" routeLength="475.02" waitingTime="16.00" waitingCount="1" stopTime="0.00" timeLoss="23.15" rerouteNo="0" devices="tripinfo_flow_NB_T.17 routing_flow_NB_T.17" vType="default" speedFactor="0.91" vaporized=""/>
    <tripinfo id="flow_SB_T.21" depart="34.00" departLane="SB_in_0" departPos="114.11" departSpeed="13.89" departDelay="0.74" arrival="87.00" arrivalLane="SB_out_0" arrivalPos="246.00" arrivalSpeed="13.00" duration="53.00" routeLength="385.89" waitingTime="16.00" waitingCount="1" stopTime="0.00" timeLoss="24.51" rerouteNo="0" devices="tripinfo_flow_SB_T.21 routing_flow_SB_T.21" vType="default" speedFactor="1.00" vaporized=""/>
    <tripinfo id="flow_SB_T.23" depart="37.00" departLane="SB_in_0" departPos="93.02" departSpeed="13.89" departDelay="0.57" arrival="88.00" arrivalLane="SB_out_0" arrivalPos="246.00" arrivalSpeed="13.32" duration="51.00" routeLength="406.98" waitingTime="14.00" waitingCount="1" stopTime="0.00" timeLoss="21.63" rerouteNo="0" devices="tripinfo_flow_SB_T.23 routing_flow_SB_T.23" vType="default" speedFactor="1.06" vaporized=""/>
    <tripinfo id="flow_SB_T.24" depart="39.00" departLane="SB_in_1" departPos="105.56" departSpeed="13.89" departDelay="0.98" arrival="88.00" arrivalLane="SB_out_1" arrivalPos="246.00" arrivalSpeed="12.98" duration="49.00" routeLength="394.44" waitingTime="12.00" waitingCount="1" stopTime="0.00" timeLoss="20.39" rerouteNo="0" devices="tripinfo_flow_SB_T.24 routing_flow_SB_T.24" vType="default" speedFactor="1.06" vaporized=""/>
    <tripinfo id="flow_SB_T.25" depart="40.00" departLane="SB_in_2" departPos="105.10" departSpeed="13.45" departDelay="0.40" arrival="88.00" arrivalLane="SB_out_2" arrivalPos="246.00" arrivalSpeed="13.01" duration="48.00" routeLength="394.90" waitingTime="12.00" waitingCount="1" stopTime="0.00" timeLoss="18.55" rerouteNo="0" devices="tripinfo_flow_SB_T.25 routing_flow_SB_T.25" vType="default" speedFactor="0.97" vaporized=""/>