<?xml version="1.0" encoding="UTF-8"?>

<!-- generated on 2025-11-12 13:49:17 by Eclipse SUMO sumo Version 1.24.0
<sumoConfiguration xmlns:xsi="http://www.w3.org/2001/XMLSchema-instance" xsi:noNamespaceSchemaLocation="http://sumo.dlr.de/xsd/sumoConfiguration.xsd">

    <input>
        <net-file value="D:\Coding\Signaloptimiser\outputs\intersection_1\sumo_network.net.xml"/>
        <route-files value="D:\Coding\Signaloptimiser\outputs\intersection_1\routes.rou.xml"/>
        <additional-files value="D:\Coding\Signaloptimiser\outputs\intersection_1\ml_traffic_lights.add.xml"/>
    </input>

    <output>
        <summary-output value="D:\Coding\Signaloptimiser\outputs\intersection_1\sumo_output_ML.xml"/>
        <tripinfo-output value="D:\Coding\Signaloptimiser\outputs\intersection_1\tripinfo_ML.xml"/>
    </output>

    <time>
        <begin value="0"/>
        <end value="3600"/>
    </time>

    <processing>
        <collision.action value="none"/>
        <time-to-teleport value="-1"/>
        <max-depart-delay value="-1"/>
    </processing>

    <report>
        <no-warnings value="true"/>
        <no-step-log value="true"/>
    </report>

</sumoConfiguration>
-->

<tripinfos xmlns:xsi="http://www.w3.org/2001/XMLSchema-instance" xsi:noNamespaceSchemaLocation="http://sumo.dlr.de/xsd/tripinfo_file.xsd">
    <tripinfo id="flow_NB_L.0" depart="0.00" departLane="NB_in_2" departPos="219.19" departSpeed="13.44" departDelay="0.00" arrival="24.00" arrivalLane="WB_out_2" arrivalPos="236.40" arrivalSpeed="13.27" duration="24.00" routeLength="280.70" waitingTime="0.00" waitingCount="0" stopTime="0.00" timeLoss="2.49" rerouteNo="0" devices="tripinfo_flow_NB_L.0 routing_flow_NB_L.0" vType="default" speedFactor="1.06" vaporized=""/>
    <tripinfo id="flow_NB_T.1" depart="2.00" departLane="NB_in_1" departPos="182.84" departSpeed="13.89" departDelay="0.28" arrival="26.00" arrivalLane="NB_out_1" arrivalPos="236.40" arrivalSpeed="12.61" duration="24.00" routeLength="317.16" waitingTime="0.00" waitingCount="0" stopTime="0.00" timeLoss="1.12" rerouteNo="0" devices="tripinfo_flow_NB_T.1 routing_flow_NB_T.1" vType="default" speedFactor="1.05" vaporized=""/>
    <tripinfo id="flow_NB_T.0" depart="0.00" departLane="NB_in_0" departPos="175.27" departSpeed="13.03" departDelay="0.00" arrival="27.00" arrivalLane="NB_out_0" arrivalPos="236.40" arrivalSpeed="11.75" duration="27.00" routeLength="324.73" waitingTime="0.00" waitingCount="0" stopTime="0.00" timeLoss="1.46" rerouteNo="0" devices="tripinfo_flow_NB_T.0 routing_flow_NB_T.0" vType="default" speedFactor="0.94" vaporized=""/>
    <tripinfo id="flow_SB_R.0" depart="0.00" departLane="SB_in_0" departPos="116.18" departSpeed="13.89" departDelay="0.00" arrival="31.00" arrivalLane="WB_out_0" arrivalPos="236.40" arrivalSpeed="13.72" duration="31.00" routeLength="365.65" waitingTime="0.00" waitingCount="0" stopTime="0.00" timeLoss="3.09" rerouteNo="0" devices="tripinfo_flow_SB_R.0 routing_flow_SB_R.0" vType="default" speedFactor="1.08" vaporized=""/>
    <tripinfo id="flow_SB_T.2" depart="4.00" departLane="SB_in_2" departPos="176.15" departSpeed="11.90" departDelay="0.83" arrival="33.00" arrivalLane="SB_out_1" arrivalPos="246.00" arrivalSpeed="11.59" duration="29.00" routeLength="323.85" waitingTime="0.00" waitingCount="0" stopTime="0.00" timeLoss="1.42" rerouteNo="0" devices="tripinfo_flow_SB_T.2 routing_flow_SB_T.2" vType="default" speedFactor="0.86" vaporized=""/>
    <tripinfo id="flow_NB_T.2" depart="4.00" departLane="NB_in_2" departPos="134.14" departSpeed="13.03" departDelay="0.56" arrival="34.00" arrivalLane="NB_out_2" arrivalPos="236.40" arrivalSpeed="12.61" duration="30.00" routeLength="365.86" waitingTime="0.00" waitingCount="0" stopTime="0.00" timeLoss="1.13" rerouteNo="0" devices="tripinfo_flow_NB_T.2 routing_flow_NB_T.2" vType="default" speedFactor="0.94" vaporized=""/>
    <tripinfo id="flow_SB_R.1" depart="8.00" departLane="SB_in_0" departPos="206.99" departSpeed="10.80" departDelay="0.61" arrival="34.00" arrivalLane="WB_out_0" arrivalPos="236.40" arrivalSpeed="12.40" duration="26.00" routeLength="274.84" waitingTime="0.00" waitingCount="0" stopTime="0.00" timeLoss="4.23" rerouteNo="0" devices="tripinfo_flow_SB_R.1 routing_flow_SB_R.1" vType="default" speedFactor="0.94" vaporized=""/>
    <tripinfo id="flow_NB_T.6" depart="11.00" departLane="NB_in_1" departPos="231.00" departSpeed="12.36" departDelay="0.68" arrival="34.00" arrivalLane="NB_out_1" arrivalPos="236.40" arrivalSpeed="11.46" duration="23.00" routeLength="269.00" waitingTime="0.00" waitingCount="0" stopTime="0.00" timeLoss="1.16" rerouteNo="0" devices="tripinfo_flow_NB_T.6 routing_flow_NB_T.6" vType="default" speedFactor="0.89" vaporized=""/>
    <tripinfo id="flow_NB_T.3" depart="6.00" departLane="NB_in_0" departPos="111.22" departSpeed="13.89" departDelay="0.84" arrival="36.00" arrivalLane="NB_out_0" arrivalPos="236.40" arrivalSpeed="13.14" duration="30.00" routeLength="388.78" waitingTime="0.00" waitingCount="0" stopTime="0.00" timeLoss="1.41" rerouteNo="0" devices="tripinfo_flow_NB_T.3 routing_flow_NB_T.3" vType="default" speedFactor="1.12" vaporized=""/>
    <tripinfo id="flow_NB_T.4" depart="7.00" departLane="NB_in_1" departPos="139.30" departSpeed="13.77" departDelay="0.12" arrival="36.00" arrivalLane="NB_out_1" arrivalPos="236.40" arrivalSpeed="13.34" duration="29.00" routeLength="360.70" waitingTime="0.00" waitingCount="0" stopTime="0.00" timeLoss="2.36" rerouteNo="0" devices="tripinfo_flow_NB_T.4 routing_flow_NB_T.4" vType="default" speedFactor="0.99" vaporized=""/>
    <tripinfo id="flow_SB_T.0" depart="0.00" departLane="SB_in_0" departPos="10.75" departSpeed="13.89" departDelay="0.00" arrival="38.00" arrivalLane="SB_out_0" arrivalPos="246.00" arrivalSpeed="13.60" duration="38.00" routeLength="489.25" waitingTime="0.00" waitingCount="0" stopTime="0.00" timeLoss="1.83" rerouteNo="0" devices="tripinfo_flow_SB_T.0 routing_flow_SB_T.0" vType="default" speedFactor="1.01" vaporized=""/>
    <tripinfo id="flow_SB_T.6" depart="10.00" departLane="SB_in_2" departPos="121.27" departSpeed="13.89" departDelay="0.50" arrival="39.00" arrivalLane="SB_out_2" arrivalPos="246.00" arrivalSpeed="13.60" duration="29.00" routeLength="378.73" waitingTime="0.00" waitingCount="0" stopTime="0.00" timeLoss="1.32" rerouteNo="0" devices="tripinfo_flow_SB_T.6 routing_flow_SB_T.6" vType="default" speedFactor="1.02" vaporized=""/>
    <tripinfo id="flow_SB_T.7" depart="12.00" departLane="SB_in_1" departPos="209.83" departSpeed="11.47" departDelay="0.91" arrival="39.00" arrivalLane="SB_out_1" arrivalPos="246.00" arrivalSpeed="11.36" duration="27.00" routeLength="290.17" waitingTime="0.00" waitingCount="0" stopTime="0.00" timeLoss="1.41" rerouteNo="0" devices="tripinfo_flow_SB_T.7 routing_flow_SB_T.7" vType="default" speedFactor="0.83" vaporized=""/>
    <tripinfo id="flow_NB_T.11" depart="19.00" departLane="NB_in_0" departPos="237.28" departSpeed="13.89" departDelay="0.08" arrival="39.00" arrivalLane="NB_out_0" arrivalPos="236.40" arrivalSpeed="13.62" duration="20.00" routeLength="262.72" waitingTime="0.00" waitingCount="0" stopTime="0.00" timeLoss="0.81" rerouteNo="0" devices="tripinfo_flow_NB_T.11 routing_flow_NB_T.11" vType="default" speedFactor="1.18" vaporized=""/>
    <tripinfo id="flow_SB_T.1" depart="2.00" departLane="SB_in_1" departPos="58.51" departSpeed="12.31" departDelay="0.42" arrival="41.00" arrivalLane="SB_out_0" arrivalPos="246.00" arrivalSpeed="11.80" duration="39.00" routeLength="441.49" waitingTime="0.00" waitingCount="0" stopTime="0.00" timeLoss="2.20" rerouteNo="0" devices="tripinfo_flow_SB_T.1 routing_flow_SB_T.1" vType="default" speedFactor="0.89" vaporized=""/>
    <tripinfo id="flow_SB_R.2" depart="15.00" departLane="SB_in_0" departPos="180.73" departSpeed="12.94" departDelay="0.22" arrival="42.00" arrivalLane="WB_out_0" arrivalPos="236.40" arrivalSpeed="12.16" duration="27.00" routeLength="301.10" waitingTime="0.00" waitingCount="0" stopTime="0.00" timeLoss="2.91" rerouteNo="0" devices="tripinfo_flow_SB_R.2 routing_flow_SB_R.2" vType="default" speedFactor="0.93" vaporized=""/>
    <tripinfo id="flow_NB_T.9" depart="16.00" departLane="NB_in_1" departPos="168.53" departSpeed="13.89" departDelay="0.52" arrival="42.00" arrivalLane="NB_out_1" arrivalPos="236.40" arrivalSpeed="13.45" duration="26.00" routeLength="331.47" waitingTime="0.00" waitingCount="0" stopTime="0.00" timeLoss="1.21" rerouteNo="0" devices="tripinfo_flow_NB_T.9 routing_flow_NB_T.9" vType="default" speedFactor="1.01" vaporized=""/>
    <tripinfo id="flow_SB_T.3" depart="5.00" departLane="SB_in_1" departPos="1.43" departSpeed="13.89" departDelay="0.25" arrival="43.00" arrivalLane="SB_out_0" arrivalPos="246.00" arrivalSpeed="13.12" duration="38.00" routeLength="498.57" waitingTime="0.00" waitingCount="0" stopTime="0.00" timeLoss="1.51" rerouteNo="0" devices="tripinfo_flow_SB_T.3 routing_flow_SB_T.3" vType="default" speedFactor="1.09" vaporized=""/>
    <tripinfo id="flow_SB_T.4" depart="7.00" departLane="SB_in_2" departPos="62.53" departSpeed="12.87" departDelay="0.66" arrival="43.00" arrivalLane="SB_out_1" arrivalPos="246.00" arrivalSpeed="12.80" duration="36.00" routeLength="437.47" waitingTime="0.00" waitingCount="0" stopTime="0.00" timeLoss="1.65" rerouteNo="0" devices="tripinfo_flow_SB_T.4 routing_flow_SB_T.4" vType="default" speedFactor="0.93" vaporized=""/>
    <tripinfo id="flow_NB_T.5" depart="9.00" departLane="NB_in_0" departPos="11.36" departSpeed="13.89" departDelay="0.40" arrival="47.00" arrivalLane="NB_out_0" arrivalPos="236.40" arrivalSpeed="13.15" duration="38.00" routeLength="488.64" waitingTime="0.00" waitingCount="0" stopTime="0.00" timeLoss="2.02" rerouteNo="0" devices="tripinfo_flow_NB_T.5 routing_flow_NB_T.5" vType="default" speedFactor="1.16" vaporized=""/>
    <tripinfo id="flow_NB_T.7" depart="13.00" departLane="NB_in_1" departPos="97.56" departSpeed="12.12" departDelay="0.96" arrival="48.00" arrivalLane="NB_out_0" arrivalPos="236.40" arrivalSpeed="12.06" duration="35.00" routeLength="402.44" waitingTime="0.00" waitingCount="0" stopTime="0.00" timeLoss="1.69" rerouteNo="0" devices="tripinfo_flow_NB_T.7 routing_flow_NB_T.7" vType="default" speedFactor="0.87" vaporized=""/>
    <tripinfo id="flow_SB_T.10" depart="16.00" departLane="SB_in_1" departPos="78.32" departSpeed="13.89" departDelay="0.16" arrival="48.00" arrivalLane="SB_out_1" arrivalPos="246.00" arrivalSpeed="13.25" duration="32.00" routeLength="421.68" waitingTime="0.00" waitingCount="0" stopTime="0.00" timeLoss="1.19" rerouteNo="0" devices="tripinfo_flow_SB_T.10 routing_flow_SB_T.10" vType="default" speedFactor="1.17" vaporized=""/>
    <tripinfo id="flow_NB_T.13" depart="23.00" departLane="NB_in_1" departPos="199.68" departSpeed="9.69" departDelay="0.64" arrival="48.00" arrivalLane="NB_out_2" arrivalPos="236.40" arrivalSpeed="13.88" duration="25.00" routeLength="300.32" waitingTime="0.00" waitingCount="0" stopTime="0.00" timeLoss="2.52" rerouteNo="0" devices="tripinfo_flow_NB_T.13 routing_flow_NB_T.13" vType="default" speedFactor="1.04" vaporized=""/>
    <tripinfo id="flow_SB_T.8" depart="13.00" departLane="SB_in_2" departPos="55.96" departSpeed="12.74" departDelay="0.33" arrival="50.00" arrivalLane="SB_out_2" arrivalPos="246.00" arrivalSpeed="11.68" duration="37.00" routeLength="444.04" waitingTime="0.00" waitingCount="0" stopTime="0.00" timeLoss="1.51" rerouteNo="0" devices="tripinfo_flow_SB_T.8 routing_flow_SB_T.8" vType="default" speedFactor="0.92" vaporized=""/>
    <tripinfo id="flow_SB_T.11" depart="18.00" departLane="SB_in_1" departPos="97.24" departSpeed="9.43" departDelay="0.58" arrival="50.00" arrivalLane="SB_out_1" arrivalPos="246.00" arrivalSpeed="13.15" duration="32.00" routeLength="402.76" waitingTime="0.00" waitingCount="0" stopTime="0.00" timeLoss="2.10" rerouteNo="0" devices="tripinfo_flow_SB_T.11 routing_flow_SB_T.11" vType="default" speedFactor="0.97" vaporized=""/>
    <tripinfo id="flow_NB_T.12" depart="21.00" departLane="NB_in_0" departPos="140.62" departSpeed="13.29" departDelay="0.36" arrival="50.00" arrivalLane="NB_out_1" arrivalPos="236.40" arrivalSpeed="13.11" duration="29.00" routeLength="359.38" waitingTime="0.00" waitingCount="0" stopTime="0.00" timeLoss="1.46" rerouteNo="0" devices="tripinfo_flow_NB_T.12 routing_flow_NB_T.12" vType="default" speedFactor="0.96" vaporized=""/>
    <tripinfo id="flow_SB_T.5" depart="8.00" departLane="SB_in_0" departPos="14.24" departSpeed="12.20" departDelay="0.08" arrival="51.00" arrivalLane="SB_out_0" arrivalPos="246.00" arrivalSpeed="11.71" duration="43.00" routeLength="485.76" waitingTime="0.00" waitingCount="0" stopTime="0.00" timeLoss="2.25" rerouteNo="0" devices="tripinfo_flow_SB_T.5 routing_flow_SB_T.5" vType="default" speedFactor="0.88" vaporized=""/>
    <tripinfo id="flow_NB_T.17" depart="30.00" departLane="NB_in_0" departPos="244.10" departSpeed="9.69" departDelay="0.76" arrival="51.00" arrivalLane="NB_out_0" arrivalPos="236.40" arrivalSpeed="12.76" duration="21.00" routeLength="255.90" waitingTime="0.00" waitingCount="0" stopTime="0.00" timeLoss="2.53" rerouteNo="0" devices="tripinfo_flow_NB_T.17 routing_flow_NB_T.17" vType="default" speedFactor="1.02" vaporized=""/>
    <tripinfo id="flow_SB_T.9" depart="15.00" departLane="SB_in_0" departPos="71.34" departSpeed="13.33" departDelay="0.74" arrival="52.00" arrivalLane="SB_out_1" arrivalPos="246.00" arrivalSpeed="13.14" duration="37.00" routeLength="428.66" waitingTime="0.00" waitingCount="0" stopTime="0.00" timeLoss="5.85" rerouteNo="0" devices="tripinfo_flow_SB_T.9 routing_flow_SB_T.9" vType="default" speedFactor="1.13" vaporized=""/>
    <tripinfo id="flow_SB_R.3" depart="23.00" departLane="SB_in_0" departPos="157.94" departSpeed="8.50" departDelay="0.82" arrival="52.00" arrivalLane="WB_out_0" arrivalPos="236.40" arrivalSpeed="13.55" duration="29.00" routeLength="323.89" waitingTime="0.00" waitingCount="0" stopTime="0.00" timeLoss="4.38" rerouteNo="0" devices="tripinfo_flow_SB_R.3 routing_flow_SB_R.3" vType="default" speedFactor="1.09" vaporized=""/>
    <tripinfo id="flow_SB_T.15" depart="24.00" departLane="SB_in_1" departPos="140.95" departSpeed="13.80" departDelay="0.24" arrival="52.00" arrivalLane="SB_out_2" arrivalPos="246.00" arrivalSpeed="13.32" duration="28.00" routeLength="359.05" waitingTime="0.00" waitingCount="0" stopTime="0.00" timeLoss="1.38" rerouteNo="0" devices="tripinfo_flow_SB_T.15 routing_flow_SB_T.15" vType="default" speedFactor="1.00" vaporized=""/>
    <tripinfo id="flow_NB_T.15" depart="26.00" departLane="NB_in_1" departPos="157.84" departSpeed="13.89" departDelay="0.20" arrival="52.00" arrivalLane="NB_out_1" arrivalPos="236.40" arrivalSpeed="13.01" duration="26.00" routeLength="342.16" waitingTime="0.00" waitingCount="0" stopTime="0.00" timeLoss="0.95" rerouteNo="0" devices="tripinfo_flow_NB_T.15 routing_flow_NB_T.15" vType="default" speedFactor="1.17" vaporized=""/>
    <tripinfo id="flow_NB_T.10" depart="18.00" departLane="NB_in_0" departPos="30.84" departSpeed="13.89" departDelay="0.80" arrival="54.00" arrivalLane="NB_out_0" arrivalPos="236.40" arrivalSpeed="13.12" duration="36.00" routeLength="469.16" waitingTime="0.00" waitingCount="0" stopTime="0.00" timeLoss="1.78" rerouteNo="0" devices="tripinfo_flow_NB_T.10 routing_flow_NB_T.10" vType="default" speedFactor="1.02" vaporized=""/>
    <tripinfo id="flow_SB_T.12" depart="20.00" departLane="SB_in_2" departPos="62.43" departSpeed="13.89" departDelay="0.99" arrival="54.00" arrivalLane="SB_out_2" arrivalPos="246.00" arrivalSpeed="13.68" duration="34.00" routeLength="437.57" waitingTime="0.00" waitingCount="0" stopTime="0.00" timeLoss="1.60" rerouteNo="0" devices="tripinfo_flow_SB_T.12 routing_flow_SB_T.12" vType="default" speedFactor="1.10" vaporized=""/>
    <tripinfo id="flow_SB_T.13" depart="21.00" departLane="SB_in_0" departPos="57.06" departSpeed="13.89" departDelay="0.41" arrival="55.00" arrivalLane="SB_out_0" arrivalPos="246.00" arrivalSpeed="12.61" duration="34.00" routeLength="442.94" waitingTime="0.00" waitingCount="0" stopTime="0.00" timeLoss="1.71" rerouteNo="0" devices="tripinfo_flow_SB_T.13 routing_flow_SB_T.13" vType="default" speedFactor="1.09" vaporized=""/>
    <tripinfo id="flow_NB_L.1" depart="9.00" departLane="NB_in_2" departPos="79.20" departSpeed="13.00" departDelay="0.98" arrival="60.00" arrivalLane="WB_out_2" arrivalPos="236.40" arrivalSpeed="11.99" duration="51.00" routeLength="420.69" waitingTime="12.00" waitingCount="1" stopTime="0.00" timeLoss="17.12" rerouteNo="0" devices="tripinfo_flow_NB_L.1 routing_flow_NB_L.1" vType="default" speedFactor="0.94" vaporized=""/>
    <tripinfo id="flow_WB_R.1" depart="5.00" departLane="WB_in_0" departPos="110.20" departSpeed="13.89" departDelay="0.20" arrival="61.00" arrivalLane="NB_out_0" arrivalPos="236.40" arrivalSpeed="13.19" duration="56.00" routeLength="371.63" waitingTime="21.00" waitingCount="1" stopTime="0.00" timeLoss="27.93" rerouteNo="0" devices="tripinfo_flow_WB_R.1 routing_flow_WB_R.1" vType="default" speedFactor="1.05" vaporized=""/>
    <tripinfo id="flow_WB_L.0" depart="0.00" departLane="WB_in_2" departPos="139.47" departSpeed="13.89" departDelay="0.00" arrival="63.00" arrivalLane="SB_out_1" arrivalPos="246.00" arrivalSpeed="13.28" duration="63.00" routeLength="363.41" waitingTime="28.00" waitingCount="1" stopTime="0.00" timeLoss="35.42" rerouteNo="0" devices="tripinfo_flow_WB_L.0 routing_flow_WB_L.0" vType="default" speedFactor="1.03" vaporized=""/>
    <tripinfo id="flow_WB_R.2" depart="10.00" departLane="WB_in_0" departPos="149.75" departSpeed="13.54" departDelay="0.40" arrival="64.00" arrivalLane="NB_out_0" arrivalPos="236.40" arrivalSpeed="12.40" duration="54.00" routeLength="332.08" waitingTime="20.00" waitingCount="1" stopTime="0.00" timeLoss="28.24" rerouteNo="0" devices="tripinfo_flow_WB_R.2 routing_flow_WB_R.2" vType="default" speedFactor="0.97" vaporized=""/>
    <tripinfo id="flow_WB_L.1" depart="5.00" departLane="WB_in_2" departPos="159.10" departSpeed="13.89" departDelay="0.20" arrival="65.00" arrivalLane="SB_out_1" arrivalPos="246.00" arrivalSpeed="13.12" duration="60.00" routeLength="343.78" waitingTime="27.00" waitingCount="1" stopTime="0.00" timeLoss="33.80" rerouteNo="0" devices="tripinfo_flow_WB_L.1 routing_flow_WB_L.1" vType="default" speedFactor="1.03" vaporized=""/>
    <tripinfo id="flow_WB_L.2" depart="10.00" departLane="WB_in_2" departPos="72.59" departSpeed="13.89" departDelay="0.40" arrival="67.00" arrivalLane="SB_out_1" arrivalPos="246.00" arrivalSpeed="13.57" duration="57.00" routeLength="430.29" waitingTime="16.00" waitingCount="1" stopTime="0.00" timeLoss="25.11" rerouteNo="0" devices="tripinfo_flow_WB_L.2 routing_flow_WB_L.2" vType="default" speedFactor="1.01" vaporized=""/>
    <tripinfo id="flow_WB_R.3" depart="15.00" departLane="WB_in_0" departPos="7.05" departSpeed="13.89" departDelay="0.60" arrival="69.00" arrivalLane="NB_out_1" arrivalPos="236.40" arrivalSpeed="13.62" duration="54.00" routeLength="474.78" waitingTime="9.00" waitingCount="1" stopTime="0.00" timeLoss="19.08" rerouteNo="0" devices="tripinfo_flow_WB_R.3 routing_flow_WB_R.3" vType="default" speedFactor="1.15" vaporized=""/>
    <tripinfo id="flow_WB_L.3" depart="15.00" departLane="WB_in_2" departPos="37.61" departSpeed="13.89" departDelay="0.60" arrival="70.00" arrivalLane="SB_out_1" arrivalPos="246.00" arrivalSpeed="13.09" duration="55.00" routeLength="465.27" waitingTime="12.00" waitingCount="1" stopTime="0.00" timeLoss="20.91" rerouteNo="0" devices="tripinfo_flow_WB_L.3 routing_flow_WB_L.3" vType="default" speedFactor="1.18" vaporized=""/>
    <tripinfo id="flow_WB_R.0" depart="0.00" departLane="WB_in_0" departPos="10.31" departSpeed="11.54" departDelay="0.00" arrival="71.00" arrivalLane="NB_out_0" arrivalPos="236.40" arrivalSpeed="10.24" duration="71.00" routeLength="471.52" waitingTime="19.00" waitingCount="1" stopTime="0.00" timeLoss="28.34" rerouteNo="0" devices="tripinfo_flow_WB_R.0 routing_flow_WB_R.0" vType="default" speedFactor="0.83" vaporized=""/>
    <tripinfo id="flow_WB_L.4" depart="20.00" departLane="WB_in_2" departPos="52.75" departSpeed="12.51" departDelay="0.80" arrival="74.00" arrivalLane="SB_out_0" arrivalPos="246.00" arrivalSpeed="11.46" duration="54.00" routeLength="450.13" waitingTime="7.00" waitingCount="1" stopTime="0.00" timeLoss="17.03" rerouteNo="0" devices="tripinfo_flow_WB_L.4 routing_flow_WB_L.4" vType="default" speedFactor="0.90" vaporized=""/>
    <tripinfo id="flow_NB_T.8" depart="14.00" departLane="NB_in_2" departPos="7.97" departSpeed="13.18" departDelay="0.24" arrival="81.00" arrivalLane="NB_out_1" arrivalPos="236.40" arrivalSpeed="13.02" duration="67.00" routeLength="492.03" waitingTime="22.00" waitingCount="1" stopTime="0.00" timeLoss="29.57" rerouteNo="0" devices="tripinfo_flow_NB_T.8 routing_flow_NB_T.8" vType="default" speedFactor="0.95" vaporized=""/>
    <tripinfo id="flow_SB_T.14" depart="23.00" departLane="SB_in_2" departPos="21.04" departSpeed="13.89" departDelay="0.82" arrival="81.00" arrivalLane="SB_out_2" arrivalPos="246.00" arrivalSpeed="13.77" duration="58.00" routeLength="478.96" waitingTime="16.00" waitingCount="1" stopTime="0.00" timeLoss="23.05" rerouteNo="0" devices="tripinfo_flow_SB_T.14 routing_flow_SB_T.14" vType="default" speedFactor="1.04" vaporized=""/>
    <tripinfo id="flow_SB_T.16" depart="26.00" departLane="SB_in_1" departPos="35.89" departSpeed="13.89" departDelay="0.66" arrival="81.00" arrivalLane="SB_out_1" arrivalPos="246.00" arrivalSpeed="13.16" duration="55.00" routeLength="464.11" waitingTime="14.00" waitingCount="1" stopTime="0.00" timeLoss="21.36" rerouteNo="0" devices="tripinfo_flow_SB_T.16 routing_flow_SB_T.16" vType="default" speedFactor="1.02" vaporized=""/>
    <tripinfo id="flow_NB_T.16" depart="28.00" departLane="NB_in_0" departPos="68.60" departSpeed="13.89" departDelay="0.48" arrival="81.00" arrivalLane="NB_out_0" arrivalPos="236.40" arrivalSpeed="13.61" duration="53.00" routeLength="431.40" waitingTime="13.00" waitingCount="1" stopTime="0.00" timeLoss="21.28" rerouteNo="0" devices="tripinfo_flow_NB_T.16 routing_flow_NB_T.16" vType="default" speedFactor="1.00" vaporized=""/>
    <tripinfo id="flow_SB_T.18" depart="29.00" departLane="SB_in_0" departPos="129.26" departSpeed="13.83" departDelay="0.49" arrival="81.00" arrivalLane="SB_out_0" arrivalPos="246.00" arrivalSpeed="13.47" duration="52.00" routeLength="370.74" waitingTime="19.00" waitingCount="1" stopTime="0.00" timeLoss="24.91" rerouteNo="0" devices="tripinfo_flow_SB_T.18 routing_flow_SB_T.18" vType="default" speedFactor="1.00" vaporized=""/>
    <tripinfo id="flow_SB_T.17" depart="27.00" departLane="SB_in_2" departPos="6.58" departSpeed="13.89" departDelay="0.07" arrival="83.00" arrivalLane="SB_out_2" arrivalPos="246.00" arrivalSpeed="13.28" duration="56.00" routeLength="493.42" waitingTime="13.00" waitingCount="1" stopTime="0.00" timeLoss="20.22" rerouteNo="0" devices="tripinfo_flow_SB_T.17 routing_flow_SB_T.17" vType="default" speedFactor="1.10" vaporized=""/>
    <tripinfo id="flow_NB_T.18" depart="31.00" departLane="NB_in_0" departPos="83.40" departSpeed="13.89" departDelay="0.04" arrival="83.00" arrivalLane="NB_out_0" arrivalPos="236.40" arrivalSpeed="12.59" duration="52.00" routeLength="416.60" waitingTime="13.00" waitingCount="1" stopTime="0.00" timeLoss="21.69" rerouteNo="0" devices="tripinfo_flow_NB_T.18 routing_flow_NB_T.18" vType="default" speedFactor="1.08" vaporized=""/>
    <tripinfo id="flow_SB_T.22" depart="35.00" departLane="SB_in_0" departPos="121.23" departSpeed="11.04" departDelay="0.15" arrival="83.00" arrivalLane="SB_out_1" arrivalPos="246.00" arrivalSpeed="13.03" duration="48.00" routeLength="378.77" waitingTime="13.00" waitingCount="1" stopTime="0.00" timeLoss="20.47" rerouteNo="0" devices="tripinfo_flow_SB_T.22 routing_flow_SB_T.22" vType="default" speedFactor="1.02" vaporized=""/>
    <tripinfo id="flow_SB_R.4" depart="30.00" departLane="SB_in_0" departPos="74.20" departSpeed="13.47" departDelay="0.43" arrival="84.00" arrivalLane="WB_out_0" arrivalPos="236.40" arrivalSpeed="12.18" duration="54.00" routeLength="407.63" waitingTime="14.00" waitingCount="1" stopTime="0.00" timeLoss="21.95" rerouteNo="0" devices="tripinfo_flow_SB_R.4 routing_flow_SB_R.4" vType="default" speedFactor="0.97" vaporized=""/>
    <tripinfo id="flow_NB_T.19" depart="33.00" departLane="NB_in_1" departPos="177.58" departSpeed="13.02" departDelay="0.32" arrival="84.00" arrivalLane="NB_out_1" arrivalPos="236.40" arrivalSpeed="12.56" duration="51.00" routeLength="322.42" waitingTime="19.00" waitingCount="1" stopTime="0.00" timeLoss="25.77" rerouteNo="0" devices="tripinfo_flow_NB_T.19 routing_flow_NB_T.19" vType="default" speedFactor="0.94" vaporized=""/>
    <tripinfo id="flow_SB_T.19" depart="31.00" departLane="SB_in_1" departPos="20.33" departSpeed="13.89" departDelay="0.90" arrival="85.00" arrivalLane="SB_out_1" arrivalPos="246.00" arrivalSpeed="13.52" duration="54.00" routeLength="479.67" waitingTime="11.00" waitingCount="1" stopTime="0.00" timeLoss="18.94" rerouteNo="0" devices="tripinfo_flow_SB_T.19 routing_flow_SB_T.19" vType="default" speedFactor="1.12" vaporized=""/>
    <tripinfo id="flow_NB_T.20" depart="35.00" departLane="NB_in_0" departPos="95.88" departSpeed="13.89" departDelay="0.60" arrival="85.00" arrivalLane="NB_out_0" arrivalPos="236.40" arrivalSpeed="12.76" duration="50.00" routeLength="404.12" waitingTime="12.00" waitingCount="1" stopTime="0.00" timeLoss="20.49" rerouteNo="0" devices="tripinfo_flow_NB_T.20 routing_flow_NB_T.20" vType="default" speedFactor="1.04" vaporized=""/>
    <tripinfo id="flow_NB_T.21" depart="37.00" departLane="NB_in_0" departPos="102.63" departSpeed="12.99" departDelay="0.88" arrival="86.00" arrivalLane="NB_out_2" arrivalPos="236.40" arrivalSpeed="13.66" duration="49.00" routeLength="397.37" waitingTime="12.00" waitingCount="1" stopTime="0.00" timeLoss="20.21" rerouteNo="0" devices="tripinfo_flow_NB_T.21 routing_flow_NB_T.21" vType="default" speedFactor="1.02" vaporized=""/>
    <tripinfo id="flow_SB_T.23" depart="37.00" departLane="SB_in_0" departPos="86.33" departSpeed="13.51" departDelay="0.57" arrival="86.00" arrivalLane="SB_out_0" arrivalPos="246.00" arrivalSpeed="12.24" duration="49.00" routeLength="413.67" waitingTime="10.00" waitingCount="1" stopTime="0.00" timeLoss="17.62" rerouteNo="0" devices="tripinfo_flow_SB_T.23 routing_flow_SB_T.23" vType="default" speedFactor="0.97" vaporized=""/>
    <tripinfo id="flow_NB_T.14" depart="25.00" departLane="NB_in_1" departPos="45.11" departSpeed="11.87" departDelay="0.92" arrival="87.00" arrivalLane="NB_out_1" arrivalPos="236.40" arrivalSpeed="11.63" duration="62.00" routeLength="454.89" waitingTime="14.00" waitingCount="1" stopTime="0.00" timeLoss="23.64" rerouteNo="0" devices="tripinfo_flow_NB_T.14 routing_flow_NB_T.14" vType="default" speedFactor="0.85" vaporized=""/>
    <tripinfo id="flow_SB_T.20" depart="32.00" departLane="SB_in_1" departPos="11.07" departSpeed="13.62" departDelay="0.32" arrival="87.00" arrivalLane="SB_out_1" arrivalPos="246.00" arrivalSpeed="13.16" duration="55.00" routeLength="488.93" waitingTime="10.00" waitingCount="1" stopTime="0.00" timeLoss="19.05" rerouteNo="0" devices="tripinfo_flow_SB_T.20 routing_flow_SB_T.20" vType="default" speedFactor="1.02" vaporized=""/>
    <tripinfo id="flow_NB_T.25" depart="43.00" departLane="NB_in_0" departPos="162.81" departSpeed="13.89" departDelay="0.00" arrival="87.00" arrivalLane="NB_out_0" arrivalPos="236.40" arrivalSpeed="13.25" duration="44.00" routeLength="337.19" waitingTime="11.00" waitingCount="1" stopTime="0.00" timeLoss="19.01" rerouteNo="0" devices="tripinfo_flow_NB_T.25 routing_flow_NB_T.25" vType="default" speedFactor="1.02" vaporized=""/>
    <tripinfo id="flow_SB_R.6" depart="45.00" departLane="SB_in_0" departPos="159.65" departSpeed="13.89" departDelay="0.65" arrival="87.00" arrivalLane="WB_out_0" arrivalPos="236.40" arrivalSpeed="13.02" duration="42.00" routeLength="322.18" waitingTime="10.00" waitingCount="1" stopTime="0.00" timeLoss="18.10" rerouteNo="0" devices="tripinfo_flow_SB_R.6 routing_flow_SB_R.6" vType="default" speedFactor="1.01" vaporized=""/>
    <tripinfo id="flow_SB_T.21" depart="34.00" departLane="SB_in_2" departPos="83.18" departSpeed="11.21" departDelay="0.74" arrival="88.00" arrivalLane="SB_out_2" arrivalPos="246.00" arrivalSpeed="11.16" duration="54.00" routeLength="416.82" waitingTime="11.00" waitingCount="1" stopTime="0.00" timeLoss="19.31" rerouteNo="0" devices="tripinfo_flow_SB_T.21 routing_flow_SB_T.21" vType="default" speedFactor="0.88" vaporized=""/>
    <tripinfo id="flow_NB_T.22" depart="38.00" departLane="NB_in_1" departPos="74.47" departSpeed="13.89" departDelay="0.16" arrival="89.00" arrivalLane="NB_out_1" arrivalPos="236.40" arrivalSpeed="12.74" duration="51.00" routeLength="425.53" waitingTime="10.00" waitingCount="1" stopTime="0.00" timeLoss="20.01" rerouteNo="0" devices="tripinfo_flow_NB_T.22 routing_flow_NB_T.22" vType="default" speedFactor="1.06" vaporized=""/>
    <tripinfo id="flow_SB_T.24" depart="39.00" departLane="SB_in_1" departPos="24.76" departSpeed="13.27" departDelay="0.98" arrival="89.00" arrivalLane="SB_out_1" arrivalPos="246.00" arrivalSpeed="12.71" duration="50.00" routeLength="475.24" waitingTime="5.00" waitingCount="1" stopTime="0.00" timeLoss="13.79" rerouteNo="0" devices="tripinfo_flow_SB_T.24 routing_flow_SB_T.24" vType="default" speedFactor="0.96" vaporized=""/>
    <tripinfo id="flow_SB_T.25" depart="40.00" departLane="SB_in_2" departPos="135.61" departSpeed="10.05" departDelay="0.40" arrival="89.00" arrivalLane="SB_out_2" arrivalPos="246.00" arrivalSpeed="13.33" duration="49.00" routeLength="364.39" waitingTime="10.00" waitingCount="1" stopTime="0.00" timeLoss="22.71" rerouteNo="0" devices="tripinfo_flow_SB_T.25 routing_flow_SB_T.25" vType="default" speedFactor="1.01" vaporized=""/>