<?xml version="1.0" encoding="UTF-8"?>

<!-- generated on 2025-11-17 00:51:32 by Eclipse SUMO sumo Version 1.24.0
<sumoConfiguration xmlns:xsi="http://www.w3.org/2001/XMLSchema-instance" xsi:noNamespaceSchemaLocation="http://sumo.dlr.de/xsd/sumoConfiguration.xsd">

    <input>
        <net-file value="D:\Coding\Signaloptimiser\outputs\comparison_temp\webster_network.net.xml"/>
        <route-files value="D:\Coding\Signaloptimiser\outputs\comparison_temp\webster_routes.rou.xml"/>
        <additional-files value="D:\Coding\Signaloptimiser\outputs\comparison_temp\webster_traffic_lights.add.xml"/>
    </input>

    <output>
        <summary-output value="D:\Coding\Signaloptimiser\outputs\comparison_temp\sumo_output_Webster.xml"/>
        <tripinfo-output value="D:\Coding\Signaloptimiser\outputs\comparison_temp\tripinfo_Webster.xml"/>
    </output>

    <time>
        <begin value="0"/>
        <end value="3600"/>
    </time>

    <processing>
        <collision.action value="none"/>
        <time-to-teleport value="-1"/>
        <max-depart-delay value="-1"/>
    </processing>

    <report>
        <no-warnings value="true"/>
        <no-step-log value="true"/>
    </report>

</sumoConfiguration>
-->

<tripinfos xmlns:xsi="http://www.w3.org/2001/XMLSchema-instance" xsi:noNamespaceSchemaLocation="http://sumo.dlr.de/xsd/tripinfo_file.xsd">
    <tripinfo id="flow_NB_T.0" depart="0.00" departLane="NB_in_0" departPos="180.04" departSpeed="13.89" departDelay="0.00" arrival="25.00" arrivalLane="NB_out_0" arrivalPos="202.06" arrivalSpeed="13.03" duration="25.00" routeLength="319.97" waitingTime="0.00" waitingCount="0" stopTime="0.00" timeLoss="1.22" rerouteNo="0" devices="tripinfo_flow_NB_T.0 routing_flow_NB_T.0" vType="default" speedFactor="1.06" vaporized=""/>
    <tripinfo id="flow_NB_R.0" depart="0.00" departLane="NB_in_0" departPos="143.97" departSpeed="13.03" departDelay="0.00" arrival="27.00" arrivalLane="WB_out_0" arrivalPos="202.06" arrivalSpeed="12.45" duration="27.00" routeLength="322.36" waitingTime="0.00" waitingCount="0" stopTime="0.00" timeLoss="1.73" rerouteNo="0" devices="tripinfo_flow_NB_R.0 routing_flow_NB_R.0" vType="default" speedFactor="0.94" vaporized=""/>
    <tripinfo id="flow_NB_T.1" depart="3.00" departLane="NB_in_1" departPos="150.18" departSpeed="13.89" departDelay="0.17" arrival="30.00" arrivalLane="NB_out_1" arrivalPos="202.06" arrivalSpeed="13.37" duration="27.00" routeLength="349.83" waitingTime="0.00" waitingCount="0" stopTime="0.00" timeLoss="1.13" rerouteNo="0" devices="tripinfo_flow_NB_T.1 routing_flow_NB_T.1" vType="default" speedFactor="1.05" vaporized=""/>
    <tripinfo id="flow_SB_T.0" depart="0.00" departLane="SB_in_0" departPos="99.30" departSpeed="13.89" departDelay="0.00" arrival="31.00" arrivalLane="SB_out_0" arrivalPos="202.06" arrivalSpeed="12.74" duration="31.00" routeLength="400.71" waitingTime="0.00" waitingCount="0" stopTime="0.00" timeLoss="1.55" rerouteNo="0" devices="tripinfo_flow_SB_T.0 routing_flow_SB_T.0" vType="default" speedFactor="1.08" vaporized=""/>
    <tripinfo id="flow_NB_R.2" depart="6.00" departLane="NB_in_0" departPos="114.42" departSpeed="13.89" departDelay="0.34" arrival="33.00" arrivalLane="WB_out_0" arrivalPos="202.06" arrivalSpeed="13.67" duration="27.00" routeLength="351.91" waitingTime="0.00" waitingCount="0" stopTime="0.00" timeLoss="1.12" rerouteNo="0" devices="tripinfo_flow_NB_R.2 routing_flow_NB_R.2" vType="default" speedFactor="1.12" vaporized=""/>
    <tripinfo id="flow_SB_T.1" depart="3.00" departLane="SB_in_1" departPos="150.56" departSpeed="11.90" departDelay="0.39" arrival="34.00" arrivalLane="SB_out_0" arrivalPos="202.06" arrivalSpeed="11.01" duration="31.00" routeLength="349.45" waitingTime="0.00" waitingCount="0" stopTime="0.00" timeLoss="1.42" rerouteNo="0" devices="tripinfo_flow_SB_T.1 routing_flow_SB_T.1" vType="default" speedFactor="0.86" vaporized=""/>
    <tripinfo id="flow_NB_T.2" depart="6.00" departLane="NB_in_2" departPos="94.19" departSpeed="13.89" departDelay="0.34" arrival="37.00" arrivalLane="NB_out_2" arrivalPos="202.06" arrivalSpeed="13.51" duration="31.00" routeLength="405.82" waitingTime="0.00" waitingCount="0" stopTime="0.00" timeLoss="1.21" rerouteNo="0" devices="tripinfo_flow_NB_T.2 routing_flow_NB_T.2" vType="default" speedFactor="1.05" vaporized=""/>
    <tripinfo id="flow_SB_T.3" depart="8.00" departLane="SB_in_1" departPos="138.13" departSpeed="13.08" departDelay="0.17" arrival="37.00" arrivalLane="SB_out_0" arrivalPos="202.06" arrivalSpeed="12.31" duration="29.00" routeLength="361.88" waitingTime="0.00" waitingCount="0" stopTime="0.00" timeLoss="1.33" rerouteNo="0" devices="tripinfo_flow_SB_T.3 routing_flow_SB_T.3" vType="default" speedFactor="0.94" vaporized=""/>
    <tripinfo id="flow_SB_L.1" depart="3.00" departLane="SB_in_2" departPos="110.18" departSpeed="13.03" departDelay="0.39" arrival="38.00" arrivalLane="WB_out_1" arrivalPos="202.06" arrivalSpeed="12.21" duration="35.00" routeLength="377.56" waitingTime="1.00" waitingCount="1" stopTime="0.00" timeLoss="5.95" rerouteNo="0" devices="tripinfo_flow_SB_L.1 routing_flow_SB_L.1" vType="default" speedFactor="0.94" vaporized=""/>
    <tripinfo id="flow_NB_R.1" depart="3.00" departLane="NB_in_0" departPos="50.01" departSpeed="12.31" departDelay="0.17" arrival="39.00" arrivalLane="WB_out_0" arrivalPos="202.06" arrivalSpeed="11.52" duration="36.00" routeLength="416.32" waitingTime="0.00" waitingCount="0" stopTime="0.00" timeLoss="1.92" rerouteNo="0" devices="tripinfo_flow_NB_R.1 routing_flow_NB_R.1" vType="default" speedFactor="0.89" vaporized=""/>
    <tripinfo id="flow_SB_T.5" depart="14.00" departLane="SB_in_1" departPos="193.29" departSpeed="13.00" departDelay="0.96" arrival="39.00" arrivalLane="SB_out_1" arrivalPos="202.06" arrivalSpeed="12.74" duration="25.00" routeLength="306.72" waitingTime="0.00" waitingCount="0" stopTime="0.00" timeLoss="1.61" rerouteNo="0" devices="tripinfo_flow_SB_T.5 routing_flow_SB_T.5" vType="default" speedFactor="0.95" vaporized=""/>
    <tripinfo id="flow_NB_R.3" depart="9.00" departLane="NB_in_0" departPos="103.65" departSpeed="11.47" departDelay="0.50" arrival="41.00" arrivalLane="WB_out_0" arrivalPos="202.06" arrivalSpeed="13.04" duration="32.00" routeLength="362.68" waitingTime="0.00" waitingCount="0" stopTime="0.00" timeLoss="5.39" rerouteNo="0" devices="tripinfo_flow_NB_R.3 routing_flow_NB_R.3" vType="default" speedFactor="1.16" vaporized=""/>
    <tripinfo id="flow_NB_T.6" depart="17.00" departLane="NB_in_2" departPos="194.90" departSpeed="5.83" departDelay="0.01" arrival="41.00" arrivalLane="NB_out_2" arrivalPos="202.06" arrivalSpeed="13.20" duration="24.00" routeLength="305.11" waitingTime="0.00" waitingCount="0" stopTime="0.00" timeLoss="1.76" rerouteNo="0" devices="tripinfo_flow_NB_T.6 routing_flow_NB_T.6" vType="default" speedFactor="0.99" vaporized=""/>
    <tripinfo id="flow_NB_R.5" depart="15.00" departLane="NB_in_0" departPos="138.43" departSpeed="12.94" departDelay="0.84" arrival="43.00" arrivalLane="WB_out_0" arrivalPos="202.06" arrivalSpeed="12.56" duration="28.00" routeLength="327.90" waitingTime="0.00" waitingCount="0" stopTime="0.00" timeLoss="1.98" rerouteNo="0" devices="tripinfo_flow_NB_R.5 routing_flow_NB_R.5" vType="default" speedFactor="0.93" vaporized=""/>
    <tripinfo id="flow_SB_T.4" depart="11.00" departLane="SB_in_0" departPos="109.98" departSpeed="12.36" departDelay="0.56" arrival="45.00" arrivalLane="SB_out_0" arrivalPos="202.06" arrivalSpeed="11.85" duration="34.00" routeLength="390.03" waitingTime="0.00" waitingCount="0" stopTime="0.00" timeLoss="1.72" rerouteNo="0" devices="tripinfo_flow_SB_T.4 routing_flow_SB_T.4" vType="default" speedFactor="0.89" vaporized=""/>
    <tripinfo id="flow_SB_T.2" depart="6.00" departLane="SB_in_0" departPos="12.18" departSpeed="12.87" departDelay="0.78" arrival="47.00" arrivalLane="SB_out_0" arrivalPos="202.06" arrivalSpeed="12.45" duration="41.00" routeLength="487.83" waitingTime="0.00" waitingCount="0" stopTime="0.00" timeLoss="2.27" rerouteNo="0" devices="tripinfo_flow_SB_T.2 routing_flow_SB_T.2" vType="default" speedFactor="0.93" vaporized=""/>
    <tripinfo id="flow_NB_R.4" depart="12.00" departLane="NB_in_0" departPos="60.97" departSpeed="12.12" departDelay="0.67" arrival="48.00" arrivalLane="WB_out_0" arrivalPos="202.06" arrivalSpeed="11.01" duration="36.00" routeLength="405.36" waitingTime="0.00" waitingCount="0" stopTime="0.00" timeLoss="1.91" rerouteNo="0" devices="tripinfo_flow_NB_R.4 routing_flow_NB_R.4" vType="default" speedFactor="0.87" vaporized=""/>
    <tripinfo id="flow_SB_T.6" depart="16.00" departLane="SB_in_1" departPos="83.12" departSpeed="13.89" departDelay="0.35" arrival="48.00" arrivalLane="SB_out_1" arrivalPos="202.06" arrivalSpeed="13.01" duration="32.00" routeLength="416.89" waitingTime="0.00" waitingCount="0" stopTime="0.00" timeLoss="1.35" rerouteNo="0" devices="tripinfo_flow_SB_T.6 routing_flow_SB_T.6" vType="default" speedFactor="1.17" vaporized=""/>
    <tripinfo id="flow_SB_T.8" depart="21.00" departLane="SB_in_0" departPos="144.59" departSpeed="13.89" departDelay="0.13" arrival="48.00" arrivalLane="SB_out_0" arrivalPos="202.06" arrivalSpeed="13.34" duration="27.00" routeLength="355.42" waitingTime="0.00" waitingCount="0" stopTime="0.00" timeLoss="1.36" rerouteNo="0" devices="tripinfo_flow_SB_T.8 routing_flow_SB_T.8" vType="default" speedFactor="1.04" vaporized=""/>
    <tripinfo id="flow_NB_T.3" depart="9.00" departLane="NB_in_1" departPos="9.33" departSpeed="13.00" departDelay="0.50" arrival="49.00" arrivalLane="NB_out_1" arrivalPos="202.06" arrivalSpeed="12.57" duration="40.00" routeLength="490.68" waitingTime="0.00" waitingCount="0" stopTime="0.00" timeLoss="2.13" rerouteNo="0" devices="tripinfo_flow_NB_T.3 routing_flow_NB_T.3" vType="default" speedFactor="0.94" vaporized=""/>
    <tripinfo id="flow_NB_R.6" depart="17.00" departLane="NB_in_0" departPos="53.36" departSpeed="13.89" departDelay="0.01" arrival="49.00" arrivalLane="WB_out_0" arrivalPos="202.06" arrivalSpeed="12.86" duration="32.00" routeLength="412.97" waitingTime="0.00" waitingCount="0" stopTime="0.00" timeLoss="2.27" rerouteNo="0" devices="tripinfo_flow_NB_R.6 routing_flow_NB_R.6" vType="default" speedFactor="1.02" vaporized=""/>
    <tripinfo id="flow_NB_T.7" depart="20.00" departLane="NB_in_2" departPos="115.50" departSpeed="13.89" departDelay="0.18" arrival="50.00" arrivalLane="NB_out_2" arrivalPos="202.06" arrivalSpeed="13.83" duration="30.00" routeLength="384.51" waitingTime="0.00" waitingCount="0" stopTime="0.00" timeLoss="1.38" rerouteNo="0" devices="tripinfo_flow_NB_T.7 routing_flow_NB_T.7" vType="default" speedFactor="1.10" vaporized=""/>
    <tripinfo id="flow_NB_T.8" depart="23.00" departLane="NB_in_1" departPos="139.75" departSpeed="13.89" departDelay="0.34" arrival="51.00" arrivalLane="NB_out_1" arrivalPos="202.06" arrivalSpeed="13.66" duration="28.00" routeLength="360.26" waitingTime="0.00" waitingCount="0" stopTime="0.00" timeLoss="1.61" rerouteNo="0" devices="tripinfo_flow_NB_T.8 routing_flow_NB_T.8" vType="default" speedFactor="1.04" vaporized=""/>
    <tripinfo id="flow_NB_T.5" depart="15.00" departLane="NB_in_2" departPos="6.03" departSpeed="13.89" departDelay="0.84" arrival="53.00" arrivalLane="NB_out_2" arrivalPos="202.06" arrivalSpeed="12.70" duration="38.00" routeLength="493.98" waitingTime="0.00" waitingCount="0" stopTime="0.00" timeLoss="1.80" rerouteNo="0" devices="tripinfo_flow_NB_T.5 routing_flow_NB_T.5" vType="default" speedFactor="1.13" vaporized=""/>
    <tripinfo id="flow_SB_T.7" depart="19.00" departLane="SB_in_1" departPos="33.94" departSpeed="13.89" departDelay="0.74" arrival="55.00" arrivalLane="SB_out_1" arrivalPos="202.06" arrivalSpeed="12.69" duration="36.00" routeLength="466.07" waitingTime="0.00" waitingCount="0" stopTime="0.00" timeLoss="1.56" rerouteNo="0" devices="tripinfo_flow_SB_T.7 routing_flow_SB_T.7" vType="default" speedFactor="1.18" vaporized=""/>
    <tripinfo id="flow_NB_R.7" depart="20.00" departLane="NB_in_0" departPos="48.78" departSpeed="12.51" departDelay="0.18" arrival="56.00" arrivalLane="WB_out_0" arrivalPos="202.06" arrivalSpeed="11.74" duration="36.00" routeLength="417.55" waitingTime="0.00" waitingCount="0" stopTime="0.00" timeLoss="1.77" rerouteNo="0" devices="tripinfo_flow_NB_R.7 routing_flow_NB_R.7" vType="default" speedFactor="0.90" vaporized=""/>
    <tripinfo id="flow_NB_R.8" depart="23.00" departLane="NB_in_0" departPos="62.19" departSpeed="12.93" departDelay="0.34" arrival="57.00" arrivalLane="WB_out_0" arrivalPos="202.06" arrivalSpeed="13.02" duration="34.00" routeLength="404.14" waitingTime="0.00" waitingCount="0" stopTime="0.00" timeLoss="4.65" rerouteNo="0" devices="tripinfo_flow_NB_R.8 routing_flow_NB_R.8" vType="default" speedFactor="1.09" vaporized=""/>
    <tripinfo id="flow_SB_T.9" depart="24.00" departLane="SB_in_0" departPos="117.21" departSpeed="12.51" departDelay="0.52" arrival="57.00" arrivalLane="SB_out_0" arrivalPos="202.06" arrivalSpeed="12.47" duration="33.00" routeLength="382.80" waitingTime="0.00" waitingCount="0" stopTime="0.00" timeLoss="1.52" rerouteNo="0" devices="tripinfo_flow_SB_T.9 routing_flow_SB_T.9" vType="default" speedFactor="0.90" vaporized=""/>
    <tripinfo id="flow_NB_T.4" depart="12.00" departLane="NB_in_1" departPos="6.55" departSpeed="11.47" departDelay="0.67" arrival="58.00" arrivalLane="NB_out_0" arrivalPos="202.06" arrivalSpeed="10.97" duration="46.00" routeLength="493.46" waitingTime="0.00" waitingCount="0" stopTime="0.00" timeLoss="2.86" rerouteNo="0" devices="tripinfo_flow_NB_T.4 routing_flow_NB_T.4" vType="default" speedFactor="0.83" vaporized=""/>
    <tripinfo id="flow_NB_T.10" depart="29.00" departLane="NB_in_1" departPos="110.48" departSpeed="13.89" departDelay="0.68" arrival="59.00" arrivalLane="NB_out_1" arrivalPos="202.06" arrivalSpeed="13.56" duration="30.00" routeLength="389.53" waitingTime="0.00" waitingCount="0" stopTime="0.00" timeLoss="1.13" rerouteNo="0" devices="tripinfo_flow_NB_T.10 routing_flow_NB_T.10" vType="default" speedFactor="1.00" vaporized=""/>
    <tripinfo id="flow_SB_T.10" depart="27.00" departLane="SB_in_0" departPos="56.34" departSpeed="13.89" departDelay="0.91" arrival="61.00" arrivalLane="SB_out_0" arrivalPos="202.06" arrivalSpeed="12.75" duration="34.00" routeLength="443.67" waitingTime="0.00" waitingCount="0" stopTime="0.00" timeLoss="1.80" rerouteNo="0" devices="tripinfo_flow_SB_T.10 routing_flow_SB_T.10" vType="default" speedFactor="1.10" vaporized=""/>
    <tripinfo id="flow_NB_T.12" depart="34.00" departLane="NB_in_2" departPos="145.86" departSpeed="13.02" departDelay="0.02" arrival="63.00" arrivalLane="NB_out_2" arrivalPos="202.06" arrivalSpeed="11.77" duration="29.00" routeLength="354.15" waitingTime="0.00" waitingCount="0" stopTime="0.00" timeLoss="1.54" rerouteNo="0" devices="tripinfo_flow_NB_T.12 routing_flow_NB_T.12" vType="default" speedFactor="0.94" vaporized=""/>
    <tripinfo id="flow_WB_R.2" depart="10.00" departLane="WB_in_0" departPos="189.74" departSpeed="8.41" departDelay="0.40" arrival="66.00" arrivalLane="NB_out_0" arrivalPos="202.06" arrivalSpeed="13.80" duration="56.00" routeLength="276.59" waitingTime="30.00" waitingCount="1" stopTime="0.00" timeLoss="36.05" rerouteNo="0" devices="tripinfo_flow_WB_R.2 routing_flow_WB_R.2" vType="default" speedFactor="1.01" vaporized=""/>
    <tripinfo id="flow_WB_R.1" depart="5.00" departLane="WB_in_1" departPos="135.99" departSpeed="13.89" departDelay="0.20" arrival="68.00" arrivalLane="NB_out_0" arrivalPos="202.06" arrivalSpeed="13.13" duration="63.00" routeLength="337.71" waitingTime="31.00" waitingCount="1" stopTime="0.00" timeLoss="37.76" rerouteNo="0" devices="tripinfo_flow_WB_R.1 routing_flow_WB_R.1" vType="default" speedFactor="1.03" vaporized=""/>
    <tripinfo id="flow_SB_L.0" depart="0.00" departLane="SB_in_2" departPos="9.19" departSpeed="13.89" departDelay="0.00" arrival="70.00" arrivalLane="WB_out_1" arrivalPos="202.06" arrivalSpeed="13.37" duration="70.00" routeLength="478.55" waitingTime="28.00" waitingCount="1" stopTime="0.00" timeLoss="35.32" rerouteNo="0" devices="tripinfo_flow_SB_L.0 routing_flow_SB_L.0" vType="default" speedFactor="1.01" vaporized=""/>
    <tripinfo id="flow_WB_R.0" depart="0.00" departLane="WB_in_0" departPos="8.81" departSpeed="11.54" departDelay="0.00" arrival="72.00" arrivalLane="NB_out_0" arrivalPos="202.06" arrivalSpeed="10.85" duration="72.00" routeLength="457.52" waitingTime="24.00" waitingCount="1" stopTime="0.00" timeLoss="32.30" rerouteNo="0" devices="tripinfo_flow_WB_R.0 routing_flow_WB_R.0" vType="default" speedFactor="0.83" vaporized=""/>
    <tripinfo id="flow_WB_R.5" depart="24.00" departLane="WB_in_1" departPos="192.95" departSpeed="0.61" departDelay="0.00" arrival="73.00" arrivalLane="NB_out_1" arrivalPos="202.06" arrivalSpeed="11.27" duration="49.00" routeLength="280.75" waitingTime="18.00" waitingCount="1" stopTime="0.00" timeLoss="24.62" rerouteNo="0" devices="tripinfo_flow_WB_R.5 routing_flow_WB_R.5" vType="default" speedFactor="0.85" vaporized=""/>
    <tripinfo id="flow_WB_R.4" depart="20.00" departLane="WB_in_0" departPos="17.99" departSpeed="13.29" departDelay="0.80" arrival="74.00" arrivalLane="NB_out_0" arrivalPos="202.06" arrivalSpeed="12.17" duration="54.00" routeLength="448.34" waitingTime="9.00" waitingCount="1" stopTime="0.00" timeLoss="19.90" rerouteNo="0" devices="tripinfo_flow_WB_R.4 routing_flow_WB_R.4" vType="default" speedFactor="0.96" vaporized=""/>
    <tripinfo id="flow_WB_R.3" depart="15.00" departLane="WB_in_1" departPos="26.14" departSpeed="13.89" departDelay="0.60" arrival="75.00" arrivalLane="NB_out_1" arrivalPos="202.06" arrivalSpeed="12.62" duration="60.00" routeLength="447.56" waitingTime="16.00" waitingCount="1" stopTime="0.00" timeLoss="26.91" rerouteNo="0" devices="tripinfo_flow_WB_R.3 routing_flow_WB_R.3" vType="default" speedFactor="1.15" vaporized=""/>
    <tripinfo id="flow_WB_R.6" depart="29.00" departLane="WB_in_0" departPos="114.60" departSpeed="11.27" departDelay="0.20" arrival="75.00" arrivalLane="NB_out_2" arrivalPos="202.06" arrivalSpeed="12.32" duration="46.00" routeLength="359.10" waitingTime="8.00" waitingCount="1" stopTime="0.00" timeLoss="18.49" rerouteNo="0" devices="tripinfo_flow_WB_R.6 routing_flow_WB_R.6" vType="default" speedFactor="0.97" vaporized=""/>
    <tripinfo id="flow_WB_R.7" depart="34.00" departLane="WB_in_0" departPos="166.81" departSpeed="7.67" departDelay="0.40" arrival="76.00" arrivalLane="NB_out_0" arrivalPos="202.06" arrivalSpeed="12.74" duration="42.00" routeLength="299.52" waitingTime="9.00" waitingCount="1" stopTime="0.00" timeLoss="19.77" rerouteNo="0" devices="tripinfo_flow_WB_R.7 routing_flow_WB_R.7" vType="default" speedFactor="1.02" vaporized=""/>
    <tripinfo id="flow_WB_R.9" depart="44.00" departLane="WB_in_1" departPos="144.12" departSpeed="13.48" departDelay="0.80" arrival="76.00" arrivalLane="NB_out_1" arrivalPos="202.06" arrivalSpeed="13.00" duration="32.00" routeLength="329.58" waitingTime="0.00" waitingCount="0" stopTime="0.00" timeLoss="7.52" rerouteNo="0" devices="tripinfo_flow_WB_R.9 routing_flow_WB_R.9" vType="default" speedFactor="0.98" vaporized=""/>
    <tripinfo id="flow_WB_L.0" depart="0.00" departLane="WB_in_2" departPos="119.21" departSpeed="13.89" departDelay="0.00" arrival="77.00" arrivalLane="SB_out_1" arrivalPos="202.06" arrivalSpeed="13.24" duration="77.00" routeLength="368.53" waitingTime="40.00" waitingCount="2" stopTime="0.00" timeLoss="50.41" rerouteNo="0" devices="tripinfo_flow_WB_L.0 routing_flow_WB_L.0" vType="default" speedFactor="1.03" vaporized=""/>
    <tripinfo id="flow_WB_R.8" depart="39.00" departLane="WB_in_0" departPos="99.55" departSpeed="13.68" departDelay="0.60" arrival="78.00" arrivalLane="NB_out_0" arrivalPos="202.06" arrivalSpeed="13.66" duration="39.00" routeLength="366.78" waitingTime="0.00" waitingCount="0" stopTime="0.00" timeLoss="11.23" rerouteNo="0" devices="tripinfo_flow_WB_R.8 routing_flow_WB_R.8" vType="default" speedFactor="0.98" vaporized=""/>
    <tripinfo id="flow_WB_L.2" depart="10.00" departLane="WB_in_2" departPos="128.00" departSpeed="13.89" departDelay="0.40" arrival="79.00" arrivalLane="SB_out_1" arrivalPos="202.06" arrivalSpeed="12.81" duration="69.00" routeLength="359.74" waitingTime="29.00" waitingCount="2" stopTime="0.00" timeLoss="43.09" rerouteNo="0" devices="tripinfo_flow_WB_L.2 routing_flow_WB_L.2" vType="default" speedFactor="1.02" vaporized=""/>
    <tripinfo id="flow_WB_L.1" depart="5.00" departLane="WB_in_2" departPos="1.22" departSpeed="13.89" departDelay="0.20" arrival="82.00" arrivalLane="SB_out_1" arrivalPos="202.06" arrivalSpeed="13.04" duration="77.00" routeLength="486.52" waitingTime="26.00" waitingCount="2" stopTime="0.00" timeLoss="41.06" rerouteNo="0" devices="tripinfo_flow_WB_L.1 routing_flow_WB_L.1" vType="default" speedFactor="1.09" vaporized=""/>
    <tripinfo id="flow_NB_R.9" depart="26.00" departLane="NB_in_0" departPos="30.68" departSpeed="13.89" departDelay="0.51" arrival="85.00" arrivalLane="WB_out_0" arrivalPos="202.06" arrivalSpeed="12.78" duration="59.00" routeLength="435.65" waitingTime="21.00" waitingCount="1" stopTime="0.00" timeLoss="26.73" rerouteNo="0" devices="tripinfo_flow_NB_R.9 routing_flow_NB_R.9" vType="default" speedFactor="1.17" vaporized=""/>
    <tripinfo id="flow_NB_R.10" depart="29.00" departLane="NB_in_0" departPos="13.53" departSpeed="13.83" departDelay="0.68" arrival="87.00" arrivalLane="WB_out_0" arrivalPos="202.06" arrivalSpeed="13.41" duration="58.00" routeLength="452.80" waitingTime="16.00" waitingCount="1" stopTime="0.00" timeLoss="24.61" rerouteNo="0" devices="tripinfo_flow_NB_R.10 routing_flow_NB_R.10" vType="default" speedFactor="1.00" vaporized=""/>
    <tripinfo id="flow_SB_T.11" depart="29.00" departLane="SB_in_1" departPos="68.50" departSpeed="13.89" departDelay="0.30" arrival="87.00" arrivalLane="SB_out_0" arrivalPos="202.06" arrivalSpeed="13.52" duration="58.00" routeLength="431.51" waitingTime="20.00" waitingCount="1" stopTime="0.00" timeLoss="26.52" rerouteNo="0" devices="tripinfo_flow_SB_T.11 routing_flow_SB_T.11" vType="default" speedFactor="1.14" vaporized=""/>
    <tripinfo id="flow_NB_T.11" depart="32.00" departLane="NB_in_2" departPos="41.86" departSpeed="13.89" departDelay="0.85" arrival="88.00" arrivalLane="NB_out_2" arrivalPos="202.06" arrivalSpeed="13.50" duration="56.00" routeLength="458.15" waitingTime="15.00" waitingCount="1" stopTime="0.00" timeLoss="22.14" rerouteNo="0" devices="tripinfo_flow_NB_T.11 routing_flow_NB_T.11" vType="default" speedFactor="1.08" vaporized=""/>
    <tripinfo id="flow_NB_R.11" depart="32.00" departLane="NB_in_0" departPos="36.50" departSpeed="11.46" departDelay="0.85" arrival="89.00" arrivalLane="WB_out_0" arrivalPos="202.06" arrivalSpeed="13.08" duration="57.00" routeLength="429.83" waitingTime="16.00" waitingCount="1" stopTime="0.00" timeLoss="25.19" rerouteNo="0" devices="tripinfo_flow_NB_R.11 routing_flow_NB_R.11" vType="default" speedFactor="1.12" vaporized=""/>
    <tripinfo id="flow_SB_T.13" depart="34.00" departLane="SB_in_1" departPos="124.29" departSpeed="9.86" departDelay="0.08" arrival="89.00" arrivalLane="SB_out_0" arrivalPos="202.06" arrivalSpeed="12.08" duration="55.00" routeLength="375.72" waitingTime="14.00" waitingCount="1" stopTime="0.00" timeLoss="25.31" rerouteNo="0" devices="tripinfo_flow_SB_T.13 routing_flow_SB_T.13" vType="default" speedFactor="0.91" vaporized=""/>
    <tripinfo id="flow_NB_T.14" depart="40.00" departLane="NB_in_2" departPos="85.90" departSpeed="13.89" departDelay="0.35" arrival="89.00" arrivalLane="NB_out_2" arrivalPos="202.06" arrivalSpeed="13.55" duration="49.00" routeLength="414.11" waitingTime="11.00" waitingCount="1" stopTime="0.00" timeLoss="18.99" rerouteNo="0" devices="tripinfo_flow_NB_T.14 routing_flow_NB_T.14" vType="default" speedFactor="1.03" vaporized=""/>
    <tripinfo id="flow_SB_T.16" depart="42.00" departLane="SB_in_1" departPos="141.34" departSpeed="13.86" departDelay="0.26" arrival="89.00" arrivalLane="SB_out_1" arrivalPos="202.06" arrivalSpeed="12.70" duration="47.00" routeLength="358.67" waitingTime="14.00" waitingCount="1" stopTime="0.00" timeLoss="20.90" rerouteNo="0" devices="tripinfo_flow_SB_T.16 routing_flow_SB_T.16" vType="default" speedFactor="1.00" vaporized=""/>
    <tripinfo id="flow_NB_T.13" depart="37.00" departLane="NB_in_1" departPos="118.21" departSpeed="13.89" departDelay="0.18" arrival="90.00" arrivalLane="NB_out_1" arrivalPos="202.06" arrivalSpeed="13.26" duration="53.00" routeLength="381.80" waitingTime="17.00" waitingCount="1" stopTime="0.00" timeLoss="25.14" rerouteNo="0" devices="tripinfo_flow_NB_T.13 routing_flow_NB_T.13" vType="default" speedFactor="1.02" vaporized=""/>
    <tripinfo id="flow_NB_T.9" depart="26.00" departLane="NB_in_1" departPos="37.05" departSpeed="11.87" departDelay="0.51" arrival="91.00" arrivalLane="NB_out_0" arrivalPos="202.06" arrivalSpeed="10.74" duration="65.00" routeLength="462.96" waitingTime="18.00" waitingCount="1" stopTime="0.00" timeLoss="25.61" rerouteNo="0" devices="tripinfo_flow_NB_T.9 routing_flow_NB_T.9" vType="default" speedFactor="0.85" vaporized=""/>
    <tripinfo id="flow_SB_T.12" depart="32.00" departLane="SB_in_0" departPos="16.16" departSpeed="13.71" departDelay="0.69" arrival="91.00" arrivalLane="SB_out_0" arrivalPos="202.06" arrivalSpeed="13.63" duration="59.00" routeLength="483.85" waitingTime="14.00" waitingCount="1" stopTime="0.00" timeLoss="23.26" rerouteNo="0" devices="tripinfo_flow_SB_T.12 routing_flow_SB_T.12" vType="default" speedFactor="0.99" vaporized=""/>
    <tripinfo id="flow_SB_T.14" depart="37.00" departLane="SB_in_0" departPos="21.16" departSpeed="13.89" departDelay="0.47" arrival="91.00" arrivalLane="SB_out_1" arrivalPos="202.06" arrivalSpeed="13.73" duration="54.00" routeLength="478.85" waitingTime="11.00" waitingCount="1" stopTime="0.00" timeLoss="19.32" rerouteNo="0" devices="tripinfo_flow_SB_T.14 routing_flow_SB_T.14" vType="default" speedFactor="1.06" vaporized=""/>
    <tripinfo id="flow_NB_T.16" depart="46.00" departLane="NB_in_2" departPos="96.99" departSpeed="13.89" departDelay="0.69" arrival="91.00" arrivalLane="NB_out_2" arrivalPos="202.06" arrivalSpeed="12.98" duration="45.00" routeLength="403.02" waitingTime="8.00" waitingCount="1" stopTime="0.00" timeLoss="15.90" rerouteNo="0" devices="tripinfo_flow_NB_T.16 routing_flow_NB_T.16" vType="default" speedFactor="1.01" vaporized=""/>
    <tripinfo id="flow_NB_R.12" depart="34.00" departLane="NB_in_0" departPos="42.91" departSpeed="10.41" departDelay="0.02" arrival="92.00" arrivalLane="WB_out_0" arrivalPos="202.06" arrivalSpeed="11.54" duration="58.00" routeLength="423.42" waitingTime="15.00" waitingCount="1" stopTime="0.00" timeLoss="23.34" rerouteNo="0" devices="tripinfo_flow_NB_R.12 routing_flow_NB_R.12" vType="default" speedFactor="0.88" vaporized=""/>
    <tripinfo id="flow_NB_T.15" depart="43.00" departLane="NB_in_1" departPos="20.51" departSpeed="13.89" departDelay="0.52" arrival="92.00" arrivalLane="NB_out_1" arrivalPos="202.06" arrivalSpeed="13.40" duration="49.00" routeLength="479.50" waitingTime="5.00" waitingCount="1" stopTime="0.00" timeLoss="13.90" rerouteNo="0" devices="tripinfo_flow_NB_T.15 routing_flow_NB_T.15" vType="default" speedFactor="1.02" vaporized=""/>
    <tripinfo id="flow_SB_T.15" depart="40.00" departLane="SB_in_0" departPos="83.06" departSpeed="13.89" departDelay="0.87" arrival="93.00" arrivalLane="SB_out_0" arrivalPos="202.06" arrivalSpeed="13.43" duration="53.00" routeLength="416.95" waitingTime="11.00" waitingCount="1" stopTime="0.00" timeLoss="22.34" rerouteNo="0" devices="tripinfo_flow_SB_T.15 routing_flow_SB_T.15" vType="default" speedFactor="1.09" vaporized=""/>
    <tripinfo id="flow_SB_T.17" depart="45.00" departLane="SB_in_1" departPos="75.09" departSpeed="13.89" departDelay="0.65" arrival="93.00" arrivalLane="SB_out_1" arrivalPos="202.06" arrivalSpeed="13.59" duration="48.00" routeLength="424.92" waitingTime="8.00" waitingCount="1" stopTime="0.00" timeLoss="17.07" rerouteNo="0" devices="tripinfo_flow_SB_T.17 routing_flow_SB_T.17" vType="default" speedFactor="1.04" vaporized=""/>
    <tripinfo id="flow_NB_T.18" depart="51.00" departLane="NB_in_2" departPos="129.55" departSpeed="13.89" departDelay="0.02" arrival="93.00" arrivalLane="NB_out_2" arrivalPos="202.06" arrivalSpeed="12.63" duration="42.00" routeLength="370.46" waitingTime="6.00" waitingCount="1" stopTime="0.00" timeLoss="15.14" rerouteNo="0" devices="tripinfo_flow_NB_T.18 routing_flow_NB_T.18" vType="default" speedFactor="1.12" vaporized=""/>
    <tripinfo id="flow_NB_R.14" depart="40.00" departLane="NB_in_0" departPos="92.09" departSpeed="11.42" departDelay="0.35" arrival="94.00" arrivalLane="WB_out_0" arrivalPos="202.06" arrivalSpeed="13.00" duration="54.00" routeLength="374.24" waitingTime="15.00" waitingCount="1" stopTime="0.00" timeLoss="26.07" rerouteNo="0" devices="tripinfo_flow_NB_R.14 routing_flow_NB_R.14" vType="default" speedFactor="0.98" vaporized=""/>
    <tripinfo id="flow_NB_T.17" depart="49.00" departLane="NB_in_1" departPos="76.67" departSpeed="13.77" departDelay="0.86" arrival="94.00" arrivalLane="NB_out_1" arrivalPos="202.06" arrivalSpeed="13.41" duration="45.00" routeLength="423.34" waitingTime="3.00" waitingCount="1" stopTime="0.00" timeLoss="13.76" rerouteNo="0" devices="tripinfo_flow_NB_T.17 routing_flow_NB_T.17" vType="default" speedFactor="1.09" vaporized=""/>
    <tripinfo id="flow_SB_T.19" depart="50.00" departLane="SB_in_0" departPos="173.08" departSpeed="4.73" departDelay="0.43" arrival="95.00" arrivalLane="SB_out_0" arrivalPos="202.06" arrivalSpeed="12.05" duration="45.00" routeLength="326.93" waitingTime="11.00" waitingCount="1" stopTime="0.00" timeLoss="18.50" rerouteNo="0" devices="tripinfo_flow_SB_T.19 routing_flow_SB_T.19" vType="default" speedFactor="0.91" vaporized=""/>